# y+ ()       
# Time        	patch         	min           	max           	average       
8010          	lowerWall	1.604674e-02	3.942499e-01	2.120352e-01
