# Field minima and maxima
# Time        	field         	min           	location(min) 	max           	location(max) 
8001          	betaCorr      	1.000000e+00	(-6.199677e+00 8.009025e-06 5.000000e-01)	4.806860e+00	(-6.390000e+00 8.009025e-06 5.000000e-01)
8002          	betaCorr      	1.000000e+00	(-6.199677e+00 8.009025e-06 5.000000e-01)	4.806860e+00	(-6.390000e+00 8.009025e-06 5.000000e-01)
8003          	betaCorr      	1.000000e+00	(-6.199677e+00 8.009025e-06 5.000000e-01)	4.806860e+00	(-6.390000e+00 8.009025e-06 5.000000e-01)
8004          	betaCorr      	1.000000e+00	(-6.199677e+00 8.009025e-06 5.000000e-01)	4.806860e+00	(-6.390000e+00 8.009025e-06 5.000000e-01)
8005          	betaCorr      	1.000000e+00	(-6.199677e+00 8.009025e-06 5.000000e-01)	4.806860e+00	(-6.390000e+00 8.009025e-06 5.000000e-01)
8006          	betaCorr      	1.000000e+00	(-6.199677e+00 8.009025e-06 5.000000e-01)	4.806860e+00	(-6.390000e+00 8.009025e-06 5.000000e-01)
8007          	betaCorr      	1.000000e+00	(-6.199677e+00 8.009025e-06 5.000000e-01)	4.806860e+00	(-6.390000e+00 8.009025e-06 5.000000e-01)
8008          	betaCorr      	1.000000e+00	(-6.199677e+00 8.009025e-06 5.000000e-01)	4.806860e+00	(-6.390000e+00 8.009025e-06 5.000000e-01)
8009          	betaCorr      	1.000000e+00	(-6.199677e+00 8.009025e-06 5.000000e-01)	4.806860e+00	(-6.390000e+00 8.009025e-06 5.000000e-01)
8010          	betaCorr      	1.000000e+00	(-6.199677e+00 8.009025e-06 5.000000e-01)	4.806860e+00	(-6.390000e+00 8.009025e-06 5.000000e-01)
