# y+ ()         
# Time          	patch           	min             	max             	average         
5000            	topWall	1.11713493e-01	1.28021675e+00	1.07284986e+00
5000            	bottomWall	4.88826954e-02	1.39398374e-01	5.70975366e-02
