# y+ ()         
# Time          	patch           	min             	max             	average         
5000            	topWall	1.11338227e-01	1.27996119e+00	1.07125607e+00
5000            	bottomWall	4.86265635e-02	1.39387149e-01	5.66059092e-02
