# Wall shear stress
# Time        	patch         	min           	max           
10            	lowerWall	(-1.479018e+00 -9.601854e-01 -2.131460e-16)	(-5.943437e-01 4.280997e-01 9.538358e-17)
20            	lowerWall	(-1.137242e+00 -5.338312e-01 -1.122193e-16)	(5.204592e-02 3.109263e-01 6.370084e-17)
30            	lowerWall	(-1.041576e+00 -4.433663e-01 -9.366333e-17)	(3.584898e-01 2.817915e-01 6.061510e-17)
40            	lowerWall	(-1.083281e+00 -3.990105e-01 -9.160001e-17)	(4.350728e-01 2.928878e-01 6.205934e-17)
50            	lowerWall	(-1.162594e+00 -3.738483e-01 -9.006987e-17)	(3.959269e-01 3.128779e-01 6.508757e-17)
60            	lowerWall	(-1.181985e+00 -3.613598e-01 -8.813988e-17)	(3.355959e-01 3.149908e-01 6.441796e-17)
