# Field minima and maxima
# Time        	field         	min           	location(min) 	max           	location(max) 
1             	betaCorr      	1.000000e+00	(-6.199677e+00 8.009025e-06 5.000000e-01)	4.806193e+00	(6.707150e-01 1.188532e-01 5.000000e-01)
2             	betaCorr      	1.000000e+00	(-6.199677e+00 8.009025e-06 5.000000e-01)	4.806716e+00	(1.412286e-01 8.529515e-02 5.000000e-01)
3             	betaCorr      	1.000000e+00	(-6.199677e+00 8.009025e-06 5.000000e-01)	4.806858e+00	(7.061310e-01 8.529734e-02 5.000000e-01)
4             	betaCorr      	1.000000e+00	(-6.199677e+00 8.009025e-06 5.000000e-01)	4.806860e+00	(7.027419e-01 8.923042e-02 5.000000e-01)
5             	betaCorr      	1.000000e+00	(-6.199677e+00 8.009025e-06 5.000000e-01)	4.806860e+00	(7.166695e-01 7.580137e-02 5.000000e-01)
6             	betaCorr      	1.000000e+00	(-6.199677e+00 8.009025e-06 5.000000e-01)	4.806857e+00	(6.993868e-01 9.336968e-02 5.000000e-01)
7             	betaCorr      	1.000000e+00	(-6.199677e+00 8.009025e-06 5.000000e-01)	4.806853e+00	(6.940364e-01 9.713259e-02 5.000000e-01)
8             	betaCorr      	1.000000e+00	(-6.199677e+00 8.009025e-06 5.000000e-01)	4.806832e+00	(7.352487e-01 8.660042e-02 5.000000e-01)
9             	betaCorr      	1.000000e+00	(-6.199677e+00 8.009025e-06 5.000000e-01)	4.806826e+00	(7.488951e-01 7.790622e-02 5.000000e-01)
10            	betaCorr      	1.000000e+00	(-6.199677e+00 8.009025e-06 5.000000e-01)	4.806816e+00	(7.651083e-01 6.893756e-02 5.000000e-01)
11            	betaCorr      	1.000000e+00	(-6.199677e+00 8.009025e-06 5.000000e-01)	4.806776e+00	(7.777040e-01 6.298314e-02 5.000000e-01)
12            	betaCorr      	1.000000e+00	(-6.199677e+00 8.009025e-06 5.000000e-01)	4.806738e+00	(7.620140e-01 7.609900e-02 5.000000e-01)
13            	betaCorr      	1.000000e+00	(-6.199677e+00 8.009025e-06 5.000000e-01)	4.806597e+00	(7.022449e-01 9.957965e-02 5.000000e-01)
14            	betaCorr      	1.000000e+00	(-6.199677e+00 8.009025e-06 5.000000e-01)	4.806391e+00	(6.983470e-01 1.000522e-01 5.000000e-01)
15            	betaCorr      	1.000000e+00	(-6.199677e+00 8.009025e-06 5.000000e-01)	4.806385e+00	(7.058313e-01 9.671302e-02 5.000000e-01)
16            	betaCorr      	1.000000e+00	(-6.199677e+00 8.009025e-06 5.000000e-01)	4.806156e+00	(7.018983e-01 9.715074e-02 5.000000e-01)
17            	betaCorr      	1.000000e+00	(-6.199677e+00 8.009025e-06 5.000000e-01)	4.805958e+00	(7.018983e-01 9.715074e-02 5.000000e-01)
18            	betaCorr      	1.000000e+00	(-6.199677e+00 8.009025e-06 5.000000e-01)	4.805967e+00	(7.548959e-01 7.441287e-02 5.000000e-01)
19            	betaCorr      	1.000000e+00	(-6.199677e+00 8.009025e-06 5.000000e-01)	4.805677e+00	(7.130336e-01 9.101609e-02 5.000000e-01)
20            	betaCorr      	1.000000e+00	(-6.199677e+00 8.009025e-06 5.000000e-01)	4.805602e+00	(7.202936e-01 8.538986e-02 5.000000e-01)
21            	betaCorr      	1.000000e+00	(-6.199677e+00 8.009025e-06 5.000000e-01)	4.805680e+00	(7.239714e-01 8.263622e-02 5.000000e-01)
22            	betaCorr      	1.000000e+00	(-6.199677e+00 8.009025e-06 5.000000e-01)	4.805655e+00	(7.258250e-01 8.127833e-02 5.000000e-01)
23            	betaCorr      	1.000000e+00	(-6.199677e+00 8.009025e-06 5.000000e-01)	4.805559e+00	(7.276881e-01 7.993276e-02 5.000000e-01)
24            	betaCorr      	1.000000e+00	(-6.199677e+00 8.009025e-06 5.000000e-01)	4.805386e+00	(7.295603e-01 7.859910e-02 5.000000e-01)
25            	betaCorr      	1.000000e+00	(-6.199677e+00 8.009025e-06 5.000000e-01)	4.805137e+00	(7.314413e-01 7.727717e-02 5.000000e-01)
26            	betaCorr      	1.000000e+00	(-6.199677e+00 8.009025e-06 5.000000e-01)	4.804790e+00	(7.352293e-01 7.466852e-02 5.000000e-01)
27            	betaCorr      	1.000000e+00	(-6.199677e+00 8.009025e-06 5.000000e-01)	4.804337e+00	(7.371360e-01 7.338155e-02 5.000000e-01)
28            	betaCorr      	1.000000e+00	(-6.199677e+00 8.009025e-06 5.000000e-01)	4.803777e+00	(7.390521e-01 7.210784e-02 5.000000e-01)
29            	betaCorr      	1.000000e+00	(-6.199677e+00 8.009025e-06 5.000000e-01)	4.803091e+00	(7.409781e-01 7.084820e-02 5.000000e-01)
30            	betaCorr      	1.000000e+00	(-6.199677e+00 8.009025e-06 5.000000e-01)	4.802163e+00	(7.409781e-01 7.084820e-02 5.000000e-01)
31            	betaCorr      	1.000000e+00	(-6.199677e+00 8.009025e-06 5.000000e-01)	4.800869e+00	(7.409781e-01 7.084820e-02 5.000000e-01)
32            	betaCorr      	1.000000e+00	(-6.199677e+00 8.009025e-06 5.000000e-01)	4.799178e+00	(7.390521e-01 7.210784e-02 5.000000e-01)
33            	betaCorr      	1.000000e+00	(-6.199677e+00 8.009025e-06 5.000000e-01)	4.797365e+00	(7.352293e-01 7.466852e-02 5.000000e-01)
34            	betaCorr      	1.000000e+00	(-6.199677e+00 8.009025e-06 5.000000e-01)	4.796464e+00	(7.198835e-01 8.291870e-02 5.000000e-01)
35            	betaCorr      	1.000000e+00	(-6.199677e+00 8.009025e-06 5.000000e-01)	4.796635e+00	(7.180643e-01 8.431683e-02 5.000000e-01)
36            	betaCorr      	1.000000e+00	(-6.199677e+00 8.009025e-06 5.000000e-01)	4.796603e+00	(7.180643e-01 8.431683e-02 5.000000e-01)
37            	betaCorr      	1.000000e+00	(-6.199677e+00 8.009025e-06 5.000000e-01)	4.796456e+00	(7.162531e-01 8.572472e-02 5.000000e-01)
38            	betaCorr      	1.000000e+00	(-6.199677e+00 8.009025e-06 5.000000e-01)	4.796419e+00	(7.162531e-01 8.572472e-02 5.000000e-01)
39            	betaCorr      	1.000000e+00	(-6.199677e+00 8.009025e-06 5.000000e-01)	4.796586e+00	(7.239714e-01 8.263622e-02 5.000000e-01)
40            	betaCorr      	1.000000e+00	(-6.199677e+00 8.009025e-06 5.000000e-01)	4.796639e+00	(7.239714e-01 8.263622e-02 5.000000e-01)
41            	betaCorr      	1.000000e+00	(-6.199677e+00 8.009025e-06 5.000000e-01)	4.797035e+00	(7.221276e-01 8.400681e-02 5.000000e-01)
42            	betaCorr      	1.000000e+00	(-6.199677e+00 8.009025e-06 5.000000e-01)	4.797011e+00	(7.221276e-01 8.400681e-02 5.000000e-01)
43            	betaCorr      	1.000000e+00	(-6.199677e+00 8.009025e-06 5.000000e-01)	4.797331e+00	(7.202936e-01 8.538986e-02 5.000000e-01)
44            	betaCorr      	1.000000e+00	(-6.199677e+00 8.009025e-06 5.000000e-01)	4.797371e+00	(7.202936e-01 8.538986e-02 5.000000e-01)
45            	betaCorr      	1.000000e+00	(-6.199677e+00 8.009025e-06 5.000000e-01)	4.797680e+00	(7.184684e-01 8.678383e-02 5.000000e-01)
46            	betaCorr      	1.000000e+00	(-6.199677e+00 8.009025e-06 5.000000e-01)	4.797837e+00	(7.184684e-01 8.678383e-02 5.000000e-01)
47            	betaCorr      	1.000000e+00	(-6.199677e+00 8.009025e-06 5.000000e-01)	4.798176e+00	(7.166511e-01 8.818755e-02 5.000000e-01)
48            	betaCorr      	1.000000e+00	(-6.199677e+00 8.009025e-06 5.000000e-01)	4.798466e+00	(7.166511e-01 8.818755e-02 5.000000e-01)
49            	betaCorr      	1.000000e+00	(-6.199677e+00 8.009025e-06 5.000000e-01)	4.798798e+00	(7.148401e-01 8.959907e-02 5.000000e-01)
50            	betaCorr      	1.000000e+00	(-6.199677e+00 8.009025e-06 5.000000e-01)	4.799213e+00	(7.148401e-01 8.959907e-02 5.000000e-01)
51            	betaCorr      	1.000000e+00	(-6.199677e+00 8.009025e-06 5.000000e-01)	4.799468e+00	(7.130336e-01 9.101609e-02 5.000000e-01)
52            	betaCorr      	1.000000e+00	(-6.199677e+00 8.009025e-06 5.000000e-01)	4.799995e+00	(7.130336e-01 9.101609e-02 5.000000e-01)
53            	betaCorr      	1.000000e+00	(-6.199677e+00 8.009025e-06 5.000000e-01)	4.800152e+00	(7.130336e-01 9.101609e-02 5.000000e-01)
54            	betaCorr      	1.000000e+00	(-6.199677e+00 8.009025e-06 5.000000e-01)	4.800706e+00	(7.112306e-01 9.243738e-02 5.000000e-01)
55            	betaCorr      	1.000000e+00	(-6.199677e+00 8.009025e-06 5.000000e-01)	4.801000e+00	(7.112306e-01 9.243738e-02 5.000000e-01)
56            	betaCorr      	1.000000e+00	(-6.199677e+00 8.009025e-06 5.000000e-01)	4.801243e+00	(7.094296e-01 9.386104e-02 5.000000e-01)
57            	betaCorr      	1.000000e+00	(-6.199677e+00 8.009025e-06 5.000000e-01)	4.801676e+00	(7.094296e-01 9.386104e-02 5.000000e-01)
58            	betaCorr      	1.000000e+00	(-6.199677e+00 8.009025e-06 5.000000e-01)	4.801822e+00	(7.094296e-01 9.386104e-02 5.000000e-01)
59            	betaCorr      	1.000000e+00	(-6.199677e+00 8.009025e-06 5.000000e-01)	4.802126e+00	(7.153044e-01 9.251301e-02 5.000000e-01)
60            	betaCorr      	1.000000e+00	(-6.199677e+00 8.009025e-06 5.000000e-01)	4.802476e+00	(7.153044e-01 9.251301e-02 5.000000e-01)
61            	betaCorr      	1.000000e+00	(-6.199677e+00 8.009025e-06 5.000000e-01)	4.802610e+00	(7.134904e-01 9.392502e-02 5.000000e-01)
62            	betaCorr      	1.000000e+00	(-6.199677e+00 8.009025e-06 5.000000e-01)	4.803019e+00	(7.134904e-01 9.392502e-02 5.000000e-01)
63            	betaCorr      	1.000000e+00	(-6.199677e+00 8.009025e-06 5.000000e-01)	4.803193e+00	(7.134904e-01 9.392502e-02 5.000000e-01)
64            	betaCorr      	1.000000e+00	(-6.199677e+00 8.009025e-06 5.000000e-01)	4.803363e+00	(7.116800e-01 9.534130e-02 5.000000e-01)
65            	betaCorr      	1.000000e+00	(-6.199677e+00 8.009025e-06 5.000000e-01)	4.803644e+00	(7.116800e-01 9.534130e-02 5.000000e-01)
66            	betaCorr      	1.000000e+00	(-6.199677e+00 8.009025e-06 5.000000e-01)	4.803815e+00	(7.195150e-01 9.317307e-02 5.000000e-01)
67            	betaCorr      	1.000000e+00	(-6.199677e+00 8.009025e-06 5.000000e-01)	4.803967e+00	(7.195150e-01 9.317307e-02 5.000000e-01)
68            	betaCorr      	1.000000e+00	(-6.199677e+00 8.009025e-06 5.000000e-01)	4.804152e+00	(7.176817e-01 9.456596e-02 5.000000e-01)
69            	betaCorr      	1.000000e+00	(-6.199677e+00 8.009025e-06 5.000000e-01)	4.804342e+00	(7.176817e-01 9.456596e-02 5.000000e-01)
70            	betaCorr      	1.000000e+00	(-6.199677e+00 8.009025e-06 5.000000e-01)	4.804422e+00	(7.176817e-01 9.456596e-02 5.000000e-01)
