# Wall shear stress
# Time        	patch         	min           	max           
8010          	lowerWall	(-7.000879e-01 -2.784264e-01 -2.742715e-14)	(1.669560e-01 7.595950e-02 1.105852e-13)
