0 	0 	0 	0
0.00025025 	-1.22399 	-0.00161843 	5.15848e-24
0.000500501 	-1.46602 	-0.00506532 	4.25778e-24
0.000750751 	-1.51219 	-0.00890851 	-1.92094e-23
0.001001 	-1.52295 	-0.0129126 	5.26345e-24
0.00125125 	-1.52238 	-0.0169876 	-2.8119e-23
0.0015015 	-1.51573 	-0.0211238 	-3.09026e-24
0.00175175 	-1.50587 	-0.025301 	-2.04315e-23
0.002002 	-1.4937 	-0.0295209 	-4.607e-24
0.00225225 	-1.48116 	-0.0337402 	5.96897e-24
0.0025025 	-1.46734 	-0.0379915 	3.25823e-23
0.00275275 	-1.45292 	-0.0422597 	1.26422e-23
0.003003 	-1.43806 	-0.0465427 	1.45645e-23
0.00325325 	-1.42285 	-0.0508385 	-4.9373e-23
0.0035035 	-1.4074 	-0.0551453 	-7.62176e-23
0.00375375 	-1.39176 	-0.0594612 	-4.62794e-23
0.004004 	-1.3761 	-0.0637752 	-2.25421e-24
0.00425425 	-1.3603 	-0.068097 	-9.70112e-25
0.0045045 	-1.34441 	-0.0724231 	-2.91992e-23
0.00475475 	-1.32845 	-0.0767505 	-5.80359e-23
0.00500501 	-1.31237 	-0.081091 	-5.88588e-23
0.00525526 	-1.29627 	-0.0854264 	-3.88304e-23
0.00550551 	-1.27995 	-0.0897831 	-6.6588e-24
0.00575576 	-1.26384 	-0.0941158 	-1.78118e-22
0.00600601 	-1.24712 	-0.0985007 	-1.08732e-22
0.00625626 	-1.23121 	-0.102815 	-5.53417e-23
0.00650651 	-1.21446 	-0.107203 	-9.4196e-23
0.00675676 	-1.1984 	-0.111521 	-5.72193e-22
0.00700701 	-1.18188 	-0.115892 	-6.02316e-22
0.00725726 	-1.16469 	-0.120298 	-8.10033e-23
0.00750751 	-1.14877 	-0.124607 	-9.02665e-23
0.00775776 	-1.13089 	-0.129079 	-2.21959e-22
0.00800801 	-1.11526 	-0.133345 	-6.95166e-22
0.00825826 	-1.09865 	-0.13771 	-7.75197e-22
0.00850851 	-1.08003 	-0.142237 	-3.46965e-22
0.00875876 	-1.06488 	-0.146447 	-1.0109e-22
0.00900901 	-1.04769 	-0.150851 	-1.06147e-22
0.00925926 	-1.02892 	-0.155388 	-2.85196e-22
0.00950951 	-1.01353 	-0.159606 	-7.51522e-22
0.00975976 	-0.996686 	-0.16396 	-8.25765e-22
0.01001 	-0.977664 	-0.168514 	-2.84216e-22
0.0102603 	-0.961179 	-0.172818 	-1.11571e-22
0.0105105 	-0.945314 	-0.177059 	-7.71455e-23
0.0107608 	-0.926414 	-0.181587 	-1.97697e-22
0.011011 	-0.907832 	-0.186084 	-2.62697e-22
0.0112613 	-0.89186 	-0.190315 	-1.08706e-22
0.0115115 	-0.874686 	-0.194652 	-1.90983e-22
0.0117618 	-0.855645 	-0.199175 	-3.33615e-22
0.012012 	-0.837179 	-0.203639 	-4.09443e-22
0.0122623 	-0.820875 	-0.207876 	-3.76356e-22
0.0125125 	-0.802848 	-0.212267 	-2.9142e-22
0.0127628 	-0.78427 	-0.216716 	-2.21197e-22
0.013013 	-0.76481 	-0.221259 	-1.35307e-22
0.0132633 	-0.748132 	-0.225502 	6.62871e-22
0.0135135 	-0.729708 	-0.229902 	8.60428e-22
0.0137638 	-0.711219 	-0.234308 	1.03582e-21
0.014014 	-0.692205 	-0.238771 	8.88894e-22
0.0142643 	-0.67356 	-0.243191 	8.20502e-22
0.0145145 	-0.655208 	-0.247553 	1.00379e-21
0.0147648 	-0.636291 	-0.251967 	9.47651e-22
0.015015 	-0.617373 	-0.25638 	8.91516e-22
0.0152653 	-0.598456 	-0.260793 	8.35381e-22
0.0155155 	-0.579354 	-0.265216 	3.06591e-14
0.0157658 	-0.559938 	-0.269637 	3.21904e-13
0.016016 	-0.540522 	-0.274057 	6.13148e-13
0.0162663 	-0.521107 	-0.278477 	9.04392e-13
0.0165165 	-0.501976 	-0.282864 	1.14712e-12
0.0167668 	-0.482576 	-0.287266 	1.40647e-12
0.017017 	-0.46332 	-0.291618 	1.4058e-12
0.0172673 	-0.443702 	-0.296002 	1.23647e-12
0.0175175 	-0.424085 	-0.300386 	1.06714e-12
0.0177678 	-0.404468 	-0.30477 	8.97814e-13
0.018018 	-0.384851 	-0.309153 	7.28484e-13
0.0182683 	-0.36376 	-0.313632 	-1.33695e-13
0.0185185 	-0.344962 	-0.317897 	-1.14601e-12
0.0187688 	-0.3249 	-0.322269 	-1.5616e-12
0.019019 	-0.304657 	-0.326657 	-1.89222e-12
0.0192693 	-0.284415 	-0.331044 	-2.22284e-12
0.0195195 	-0.263628 	-0.335469 	-2.25098e-12
0.0197698 	-0.241531 	-0.339983 	-1.55089e-12
0.02002 	-0.221035 	-0.344347 	-1.07207e-12
0.0202703 	-0.201533 	-0.348617 	-7.30599e-13
0.0205205 	-0.181743 	-0.352911 	-4.09338e-13
0.0207708 	-0.160781 	-0.357302 	-1.70432e-13
0.021021 	-0.13927 	-0.361731 	2.97631e-21
0.0212713 	-0.116389 	-0.366253 	2.4259e-21
0.0215215 	-0.0935075 	-0.370776 	1.87548e-21
0.0217718 	-0.0721469 	-0.375153 	1.40673e-21
0.022022 	-0.0518434 	-0.379428 	9.94746e-22
0.0222723 	-0.03154 	-0.383704 	5.82766e-22
0.0225225 	-0.0112365 	-0.387979 	1.70787e-22
0.0227728 	0.0117286 	-0.392447 	-2.10815e-22
0.023023 	0.0355172 	-0.396978 	-3.65153e-22
0.0232733 	0.0593058 	-0.401509 	-5.19492e-22
0.0235235 	0.0830943 	-0.40604 	-6.7383e-22
0.0237738 	0.104457 	-0.410336 	-7.73202e-22
0.024024 	0.125671 	-0.414617 	-8.69179e-22
0.0242743 	0.14705 	-0.41891 	-9.94235e-22
0.0245245 	0.170366 	-0.423333 	-1.45741e-21
0.0247748 	0.193682 	-0.427755 	-1.92058e-21
0.025025 	0.216998 	-0.432178 	-2.38376e-21
0.0252753 	0.241745 	-0.436712 	-2.83827e-21
0.0255255 	0.266578 	-0.441251 	-3.29227e-21
0.0257758 	0.28981 	-0.445635 	-3.28813e-21
0.026026 	0.312055 	-0.449922 	-3.00115e-21
0.0262763 	0.336193 	-0.454335 	-2.56876e-21
0.0265265 	0.360664 	-0.458769 	-2.11075e-21
0.0267768 	0.385135 	-0.463203 	-1.65275e-21
0.027027 	0.409606 	-0.467638 	-1.19474e-21
0.0272773 	0.434077 	-0.472072 	-7.3674e-22
0.0275275 	0.458548 	-0.476507 	-2.78736e-22
0.0277778 	0.483121 	-0.480948 	1.43814e-22
0.028028 	0.508128 	-0.485383 	7.90238e-22
0.0282783 	0.533912 	-0.489829 	3.21665e-22
0.0285285 	0.55941 	-0.494249 	-1.55665e-22
0.0287788 	0.584376 	-0.498617 	-6.49392e-22
0.029029 	0.609341 	-0.502986 	-1.14312e-21
0.0292793 	0.634306 	-0.507355 	-1.63685e-21
0.0295295 	0.659272 	-0.511724 	-2.13058e-21
0.0297798 	0.684237 	-0.516093 	-2.6243e-21
0.03003 	0.709311 	-0.52047 	-3.03031e-21
0.0302803 	0.736713 	-0.525016 	-1.54916e-21
0.0305305 	0.762133 	-0.529349 	-8.15536e-22
0.0307808 	0.786775 	-0.533599 	-3.75486e-22
0.031031 	0.812178 	-0.537905 	-1.18452e-22
0.0312813 	0.838502 	-0.54228 	-8.27031e-23
0.0315315 	0.864826 	-0.546655 	-4.69538e-23
0.0317818 	0.891149 	-0.551031 	-1.12046e-23
0.032032 	0.917473 	-0.555406 	2.45447e-23
0.0322823 	0.944918 	-0.55986 	3.22787e-22
0.0325325 	0.973855 	-0.564419 	9.69997e-22
0.0327828 	1.00279 	-0.568979 	1.61721e-21
0.033033 	1.03168 	-0.573534 	2.31044e-21
0.0332833 	1.05779 	-0.577795 	5.7571e-21
0.0335335 	1.0839 	-0.582056 	9.20376e-21
0.0337838 	1.11001 	-0.586318 	1.26504e-20
0.034034 	1.13612 	-0.590579 	1.60971e-20
0.0342843 	1.16223 	-0.59484 	1.95437e-20
0.0345345 	1.18931 	-0.599168 	2.15867e-20
0.0347848 	1.21987 	-0.603739 	1.86012e-20
0.035035 	1.25053 	-0.608316 	1.54755e-20
0.0352853 	1.28119 	-0.612894 	1.23498e-20
0.0355355 	1.31185 	-0.617471 	9.22407e-21
0.0357858 	1.34251 	-0.622049 	6.09835e-21
0.036036 	1.37208 	-0.626513 	3.99904e-21
0.0362863 	1.39983 	-0.63079 	3.60651e-21
0.0365365 	1.42758 	-0.635067 	3.21399e-21
0.0367868 	1.45533 	-0.639344 	2.82146e-21
0.037037 	1.48546 	-0.643768 	2.55357e-21
0.0372873 	1.51625 	-0.648233 	2.32007e-21
0.0375375 	1.54705 	-0.652698 	2.08656e-21
0.0377878 	1.57784 	-0.657163 	1.85306e-21
0.038038 	1.60863 	-0.661627 	1.61956e-21
0.0382883 	1.63942 	-0.666092 	1.38605e-21
0.0385385 	1.67021 	-0.670557 	1.15255e-21
0.0387888 	1.70152 	-0.675053 	1.03369e-21
0.039039 	1.7341 	-0.679627 	1.20132e-21
0.0392893 	1.76454 	-0.683986 	-8.82494e-22
0.0395395 	1.79674 	-0.688405 	-2.83163e-21
0.0397898 	1.82983 	-0.692875 	-4.42843e-21
0.04004 	1.86291 	-0.697344 	-6.02524e-21
0.0402903 	1.89528 	-0.701764 	-7.10768e-21
0.0405405 	1.92673 	-0.706122 	-7.53694e-21
0.0407908 	1.95817 	-0.710479 	-7.96621e-21
0.041041 	1.98962 	-0.714837 	-8.39547e-21
0.0412913 	2.02107 	-0.719194 	-8.82474e-21
0.0415415 	2.05252 	-0.723552 	-9.25401e-21
0.0417918 	2.08397 	-0.727909 	-9.68327e-21
0.042042 	2.11603 	-0.732304 	-1.10292e-20
0.0422923 	2.15102 	-0.736874 	-1.67397e-20
0.0425425 	2.18602 	-0.741444 	-2.24501e-20
0.0427928 	2.21789 	-0.745705 	-3.27555e-20
0.043043 	2.24966 	-0.749954 	-4.32256e-20
0.0432933 	2.28142 	-0.754204 	-5.36956e-20
0.0435435 	2.31318 	-0.758453 	-6.41657e-20
0.0437938 	2.34563 	-0.762737 	-7.24113e-20
0.044044 	2.37977 	-0.767104 	-7.5132e-20
0.0442943 	2.41391 	-0.77147 	-7.78527e-20
0.0445445 	2.44806 	-0.775837 	-8.05734e-20
0.0447948 	2.4826 	-0.780226 	-8.20749e-20
0.045045 	2.52127 	-0.784838 	-7.10826e-20
0.0452953 	2.55993 	-0.789449 	-6.00902e-20
0.0455455 	2.59859 	-0.794061 	-4.90979e-20
0.0457958 	2.63726 	-0.798673 	-3.81055e-20
0.046046 	2.67592 	-0.803284 	-2.71132e-20
0.0462963 	2.71448 	-0.807886 	-1.62143e-20
0.0465465 	2.74966 	-0.812174 	-8.34034e-21
0.0467968 	2.78483 	-0.816462 	-4.66334e-22
0.047047 	2.82001 	-0.82075 	7.40767e-21
0.0472973 	2.85519 	-0.825038 	1.52817e-20
0.0475475 	2.89036 	-0.829326 	2.31557e-20
0.0477978 	2.9284 	-0.833763 	2.55592e-20
0.048048 	2.96905 	-0.838337 	2.2971e-20
0.0482983 	3.00969 	-0.84291 	2.03829e-20
0.0485485 	3.05034 	-0.847484 	1.77947e-20
0.0487988 	3.09099 	-0.852057 	1.52065e-20
0.049049 	3.13164 	-0.856631 	1.26184e-20
0.0492993 	3.17229 	-0.861204 	1.00302e-20
0.0495495 	3.21293 	-0.865778 	7.44202e-21
0.0497998 	3.25465 	-0.870399 	3.0328e-21
0.0500501 	3.298 	-0.875094 	-4.18297e-21
0.0503003 	3.34135 	-0.87979 	-1.13987e-20
0.0505506 	3.38167 	-0.884224 	-1.71086e-20
0.0508008 	3.42395 	-0.888705 	-1.84789e-20
0.0510511 	3.46912 	-0.893309 	-1.56892e-20
0.0513013 	3.51428 	-0.897912 	-1.28996e-20
0.0515516 	3.55906 	-0.902498 	-1.02996e-20
0.0518018 	3.60093 	-0.906952 	-9.12475e-21
0.0520521 	3.6428 	-0.911405 	-7.94992e-21
0.0523023 	3.68467 	-0.915858 	-6.77509e-21
0.0525526 	3.72653 	-0.920312 	-5.60027e-21
0.0528028 	3.7684 	-0.924765 	-4.42544e-21
0.0530531 	3.81027 	-0.929219 	-3.25061e-21
0.0533033 	3.85213 	-0.933672 	-2.07578e-21
0.0535536 	3.894 	-0.938126 	-9.00956e-22
0.0538038 	3.93587 	-0.942579 	2.73871e-22
0.0540541 	3.98294 	-0.947266 	-7.4459e-22
0.0543043 	4.03063 	-0.951981 	-2.0194e-21
0.0545546 	4.07831 	-0.956695 	-3.29421e-21
0.0548048 	4.12523 	-0.961347 	-4.26086e-21
0.0550551 	4.16868 	-0.965717 	-3.83431e-21
0.0553053 	4.21213 	-0.970088 	-3.40775e-21
0.0555556 	4.25558 	-0.974458 	-2.9812e-21
0.0558058 	4.29903 	-0.978828 	-2.55464e-21
0.0560561 	4.34248 	-0.983198 	-2.12809e-21
0.0563063 	4.38593 	-0.987568 	-1.70153e-21
0.0565566 	4.42938 	-0.991939 	-1.27498e-21
0.0568068 	4.47283 	-0.996309 	-8.48424e-22
0.0570571 	4.51627 	-1.00068 	-4.21869e-22
0.0573073 	4.56449 	-1.00524 	9.1587e-22
0.0575576 	4.61575 	-1.00989 	2.43255e-21
0.0578078 	4.66701 	-1.01454 	3.94924e-21
0.0580581 	4.71826 	-1.01919 	5.46592e-21
0.0583083 	4.76952 	-1.02384 	6.9826e-21
0.0585586 	4.82078 	-1.02849 	8.49929e-21
0.0588088 	4.87204 	-1.03314 	1.0016e-20
0.0590591 	4.9233 	-1.03779 	1.15327e-20
0.0593093 	4.97456 	-1.04244 	1.30493e-20
0.0595596 	5.02556 	-1.04707 	1.47128e-20
0.0598098 	5.07233 	-1.05139 	1.87853e-20
0.0600601 	5.11911 	-1.0557 	2.28579e-20
0.0603103 	5.16588 	-1.06002 	2.69305e-20
0.0605606 	5.21415 	-1.06438 	2.92575e-20
0.0608108 	5.26609 	-1.06886 	2.72789e-20
0.0610611 	5.31803 	-1.07333 	2.53004e-20
0.0613113 	5.36998 	-1.07781 	2.33219e-20
0.0615616 	5.42192 	-1.08229 	2.13434e-20
0.0618118 	5.47386 	-1.08677 	1.93649e-20
0.0620621 	5.52581 	-1.09125 	1.73864e-20
0.0623123 	5.57775 	-1.09573 	1.54079e-20
0.0625626 	5.62856 	-1.10017 	1.39617e-20
0.0628128 	5.67708 	-1.10454 	1.3601e-20
0.0630631 	5.72559 	-1.10891 	1.32403e-20
0.0633133 	5.7741 	-1.11328 	1.28796e-20
0.0635636 	5.82262 	-1.11765 	1.25188e-20
0.0638138 	5.87113 	-1.12201 	1.21581e-20
0.0640641 	5.92111 	-1.12644 	-8.96598e-15
0.0643143 	5.97505 	-1.131 	-4.19874e-14
0.0645646 	6.02899 	-1.13556 	-7.50087e-14
0.0648148 	6.08149 	-1.14002 	-9.52216e-14
0.0650651 	6.13063 	-1.14424 	-8.57105e-14
0.0653153 	6.17978 	-1.14846 	-7.61994e-14
0.0655656 	6.22893 	-1.15267 	-6.66883e-14
0.0658158 	6.27808 	-1.15689 	-5.71772e-14
0.0660661 	6.32723 	-1.16111 	-4.7666e-14
0.0663163 	6.37638 	-1.16533 	-3.81549e-14
0.0665666 	6.42553 	-1.16955 	-2.86438e-14
0.0668168 	6.47467 	-1.17376 	-1.91327e-14
0.0670671 	6.52382 	-1.17798 	-9.62154e-15
0.0673173 	6.57297 	-1.1822 	-1.10418e-16
0.0675676 	6.62343 	-1.18641 	-9.94207e-20
0.0678178 	6.67741 	-1.19069 	-9.41532e-20
0.0680681 	6.73262 	-1.195 	-8.49807e-20
0.0683183 	6.78782 	-1.19931 	-7.58081e-20
0.0685686 	6.84303 	-1.20362 	-6.66356e-20
0.0688188 	6.89823 	-1.20793 	-5.7463e-20
0.0690691 	6.95343 	-1.21223 	-4.82905e-20
0.0693193 	7.00864 	-1.21654 	-3.91179e-20
0.0695696 	7.06384 	-1.22085 	-2.99454e-20
0.0698198 	7.11905 	-1.22516 	-2.07728e-20
0.0700701 	7.17425 	-1.22947 	-1.16003e-20
0.0703203 	7.22945 	-1.23378 	-2.42772e-21
0.0705706 	7.28085 	-1.23783 	-3.5586e-22
0.0708208 	7.3312 	-1.24182 	-2.22176e-22
0.0710711 	7.38156 	-1.24581 	-8.84919e-23
0.0713213 	7.43191 	-1.2498 	4.5192e-23
0.0715716 	7.48511 	-1.25376 	6.63162e-23
0.0718218 	7.53889 	-1.25771 	6.45736e-23
0.0720721 	7.59267 	-1.26166 	6.2831e-23
0.0723223 	7.64645 	-1.26561 	6.10884e-23
0.0725726 	7.70023 	-1.26956 	5.93458e-23
0.0728228 	7.75401 	-1.27351 	5.76032e-23
0.0730731 	7.80779 	-1.27746 	5.58606e-23
0.0733233 	7.85919 	-1.28146 	4.94825e-23
0.0735736 	7.91051 	-1.28546 	4.29425e-23
0.0738238 	7.96183 	-1.28947 	3.64025e-23
0.0740741 	8.01315 	-1.29347 	2.98625e-23
0.0743243 	8.06447 	-1.29747 	2.33226e-23
0.0745746 	8.11579 	-1.30147 	1.67826e-23
0.0748248 	8.16711 	-1.30547 	1.02426e-23
0.0750751 	8.21843 	-1.30947 	3.70267e-24
0.0753253 	8.27137 	-1.31347 	7.29213e-23
0.0755756 	8.32643 	-1.31745 	2.41004e-22
0.0758258 	8.38148 	-1.32144 	4.09088e-22
0.0760761 	8.43653 	-1.32543 	5.77171e-22
0.0763263 	8.49158 	-1.32941 	7.45254e-22
0.0765766 	8.5449 	-1.33329 	8.41836e-22
0.0768268 	8.59505 	-1.33698 	8.07645e-22
0.0770771 	8.64519 	-1.34067 	7.73454e-22
0.0773273 	8.69534 	-1.34435 	7.39263e-22
0.0775776 	8.74548 	-1.34804 	7.05072e-22
0.0778278 	8.79563 	-1.35173 	6.70881e-22
0.0780781 	8.84577 	-1.35541 	6.36691e-22
0.0783283 	8.89592 	-1.3591 	6.025e-22
0.0785786 	8.94606 	-1.36278 	5.68309e-22
0.0788288 	8.99621 	-1.36647 	5.34118e-22
0.0790791 	9.04635 	-1.37016 	4.99927e-22
0.0793293 	9.09752 	-1.37372 	-3.75978e-22
0.0795796 	9.14941 	-1.37721 	-1.84544e-21
0.0798298 	9.2013 	-1.38069 	-3.3149e-21
0.0800801 	9.25319 	-1.38417 	-4.78437e-21
0.0803303 	9.30508 	-1.38765 	-6.25383e-21
0.0805806 	9.35697 	-1.39113 	-7.72329e-21
0.0808308 	9.40886 	-1.39462 	-9.19276e-21
0.0810811 	9.46075 	-1.3981 	-1.06622e-20
0.0813313 	9.51264 	-1.40158 	-1.21317e-20
0.0815816 	9.56453 	-1.40506 	-1.36011e-20
0.0818318 	9.61642 	-1.40855 	-1.50706e-20
0.0820821 	9.66831 	-1.41203 	-1.65401e-20
0.0823323 	9.7202 	-1.41551 	-1.80095e-20
0.0825826 	9.77209 	-1.41899 	-1.9479e-20
0.0828328 	9.82408 	-1.42242 	-2.09276e-20
0.0830831 	9.87614 	-1.42582 	-2.23623e-20
0.0833333 	9.92403 	-1.42881 	-2.41872e-20
0.0835836 	9.97164 	-1.43188 	-2.40342e-20
0.0838338 	10.0194 	-1.43501 	-2.33126e-20
0.0840841 	10.0671 	-1.43814 	-2.2591e-20
0.0843343 	10.1148 	-1.44126 	-2.18694e-20
0.0845846 	10.1625 	-1.44439 	-2.11477e-20
0.0848348 	10.2102 	-1.44752 	-2.04261e-20
0.0850851 	10.258 	-1.45065 	-1.97045e-20
0.0853353 	10.3057 	-1.45377 	-1.89829e-20
0.0855856 	10.3534 	-1.4569 	-1.82612e-20
0.0858358 	10.4011 	-1.46003 	-1.75396e-20
0.0860861 	10.4488 	-1.46316 	-1.6818e-20
0.0863363 	10.4966 	-1.46629 	-1.60964e-20
0.0865866 	10.5443 	-1.46941 	-1.53747e-20
0.0868368 	10.592 	-1.47254 	-1.46531e-20
0.0870871 	10.6397 	-1.47567 	-1.39315e-20
0.0873373 	10.6874 	-1.4788 	-1.32098e-20
0.0875876 	10.7349 	-1.48161 	-1.50338e-20
0.0878378 	10.7822 	-1.48429 	-1.78974e-20
0.0880881 	10.8295 	-1.48697 	-2.0761e-20
0.0883383 	10.8769 	-1.48965 	-2.36245e-20
0.0885886 	10.9242 	-1.49233 	-2.64881e-20
0.0888388 	10.9715 	-1.49501 	-2.93517e-20
0.0890891 	11.0189 	-1.49769 	-3.22153e-20
0.0893393 	11.0662 	-1.50037 	-3.50789e-20
0.0895896 	11.1135 	-1.50305 	-3.79425e-20
0.0898398 	11.1608 	-1.50573 	-4.08061e-20
0.0900901 	11.2082 	-1.50841 	-4.36697e-20
0.0903403 	11.2552 	-1.51108 	-4.66744e-20
0.0905906 	11.2983 	-1.51357 	-5.17345e-20
0.0908408 	11.3414 	-1.51606 	-5.67946e-20
0.0910911 	11.3845 	-1.51855 	-6.18547e-20
0.0913413 	11.4276 	-1.52104 	-6.69148e-20
0.0915916 	11.4707 	-1.52353 	-7.19749e-20
0.0918418 	11.5121 	-1.52557 	-6.94868e-20
0.0920921 	11.5529 	-1.52743 	-6.41085e-20
0.0923423 	11.5937 	-1.5293 	-5.87303e-20
0.0925926 	11.6345 	-1.53116 	-5.3352e-20
0.0928428 	11.6753 	-1.53303 	-4.79737e-20
0.0930931 	11.7161 	-1.53489 	-4.25955e-20
0.0933433 	11.7569 	-1.53676 	-3.72172e-20
0.0935936 	11.7999 	-1.53916 	-3.50715e-20
0.0938438 	11.8432 	-1.54164 	-3.3431e-20
0.0940941 	11.8865 	-1.54413 	-3.17904e-20
0.0943443 	11.9299 	-1.54661 	-3.01499e-20
0.0945946 	11.9732 	-1.54909 	-2.85094e-20
0.0948448 	12.0165 	-1.55158 	-2.68688e-20
0.0950951 	12.0599 	-1.55406 	-2.52283e-20
0.0953453 	12.1032 	-1.55654 	-2.35877e-20
0.0955956 	12.1465 	-1.55903 	-2.19472e-20
0.0958458 	12.1899 	-1.56151 	-2.03067e-20
0.0960961 	12.2326 	-1.56382 	-1.90251e-20
0.0963463 	12.2738 	-1.56566 	-1.86802e-20
0.0965966 	12.3149 	-1.56751 	-1.83353e-20
0.0968468 	12.3561 	-1.56935 	-1.79904e-20
0.0970971 	12.3973 	-1.5712 	-1.76455e-20
0.0973473 	12.4384 	-1.57305 	-1.73006e-20
0.0975976 	12.4796 	-1.57489 	-1.69557e-20
0.0978478 	12.5208 	-1.57674 	-1.66107e-20
0.0980981 	12.562 	-1.57859 	-1.62658e-20
0.0983483 	12.6002 	-1.58033 	-2.04495e-20
0.0985986 	12.6376 	-1.58206 	-2.58769e-20
0.0988488 	12.6751 	-1.58378 	-3.13044e-20
0.0990991 	12.7125 	-1.5855 	-3.67318e-20
0.0993493 	12.75 	-1.58723 	-4.21592e-20
0.0995996 	12.7874 	-1.58895 	-4.75867e-20
0.0998498 	12.8248 	-1.59067 	-5.30141e-20
0.1001 	12.8623 	-1.5924 	-5.84415e-20
0.10035 	12.8997 	-1.59412 	-6.38689e-20
0.100601 	12.9353 	-1.59543 	-6.5281e-20
0.100851 	12.9687 	-1.59629 	-6.22863e-20
0.101101 	13.0021 	-1.59715 	-5.92916e-20
0.101351 	13.0356 	-1.59801 	-5.6297e-20
0.101602 	13.069 	-1.59888 	-5.33023e-20
0.101852 	13.1024 	-1.59974 	-5.03076e-20
0.102102 	13.1359 	-1.6006 	-4.73129e-20
0.102352 	13.1693 	-1.60146 	-4.43182e-20
0.102603 	13.2027 	-1.60232 	-4.13236e-20
0.102853 	13.2362 	-1.60318 	-3.83289e-20
0.103103 	13.2696 	-1.60404 	-3.53342e-20
0.103353 	13.3062 	-1.60554 	-3.4857e-20
0.103604 	13.344 	-1.60727 	-3.53182e-20
0.103854 	13.3818 	-1.609 	-3.57794e-20
0.104104 	13.4196 	-1.61073 	-3.62406e-20
0.104354 	13.4574 	-1.61246 	-3.67019e-20
0.104605 	13.4951 	-1.61419 	-3.71631e-20
0.104855 	13.5329 	-1.61592 	-3.76243e-20
0.105105 	13.5694 	-1.61736 	-3.73951e-20
0.105355 	13.6033 	-1.61821 	-3.57715e-20
0.105606 	13.6371 	-1.61906 	-3.41479e-20
0.105856 	13.671 	-1.61991 	-3.25243e-20
0.106106 	13.7048 	-1.62076 	-3.09006e-20
0.106356 	13.7387 	-1.62161 	-2.9277e-20
0.106607 	13.7725 	-1.62247 	-2.76534e-20
0.106857 	13.8041 	-1.62328 	-1.96302e-20
0.107107 	13.8348 	-1.62409 	-9.3687e-21
0.107357 	13.8656 	-1.6249 	8.92846e-22
0.107608 	13.8963 	-1.62571 	1.11544e-20
0.107858 	13.9271 	-1.62652 	2.14159e-20
0.108108 	13.9579 	-1.62733 	3.16775e-20
0.108358 	13.9886 	-1.62813 	4.1939e-20
0.108609 	14.0194 	-1.62894 	5.22006e-20
0.108859 	14.0501 	-1.62975 	6.24621e-20
0.109109 	14.0809 	-1.63056 	7.27236e-20
0.109359 	14.1117 	-1.63137 	8.29852e-20
0.10961 	14.1424 	-1.63217 	9.32467e-20
0.10986 	14.1675 	-1.63227 	9.32674e-20
0.11011 	14.1907 	-1.63212 	8.97866e-20
0.11036 	14.2138 	-1.63197 	8.63058e-20
0.110611 	14.237 	-1.63182 	8.2825e-20
0.110861 	14.2602 	-1.63167 	7.93442e-20
0.111111 	14.2833 	-1.63152 	7.58634e-20
0.111361 	14.3065 	-1.63137 	7.23826e-20
0.111612 	14.3297 	-1.63123 	6.89018e-20
0.111862 	14.3528 	-1.63108 	6.5421e-20
0.112112 	14.376 	-1.63093 	6.19402e-20
0.112362 	14.3992 	-1.63078 	5.84594e-20
0.112613 	14.4223 	-1.63063 	5.49786e-20
0.112863 	14.4476 	-1.63073 	5.19665e-20
0.113113 	14.4789 	-1.63159 	5.03275e-20
0.113363 	14.5103 	-1.63244 	4.86885e-20
0.113614 	14.5416 	-1.63329 	4.70495e-20
0.113864 	14.573 	-1.63414 	4.54105e-20
0.114114 	14.6044 	-1.635 	4.37715e-20
0.114364 	14.6357 	-1.63585 	4.21325e-20
0.114615 	14.6602 	-1.63582 	3.87007e-20
0.114865 	14.6837 	-1.63568 	3.50354e-20
0.115115 	14.7073 	-1.63554 	3.137e-20
0.115365 	14.7308 	-1.6354 	2.77046e-20
0.115616 	14.7544 	-1.63527 	2.40392e-20
0.115866 	14.7779 	-1.63513 	2.03738e-20
0.116116 	14.8002 	-1.63501 	2.05727e-20
0.116366 	14.8216 	-1.63491 	2.34075e-20
0.116617 	14.843 	-1.63481 	2.62423e-20
0.116867 	14.8644 	-1.63471 	2.90771e-20
0.117117 	14.8858 	-1.63461 	3.19119e-20
0.117367 	14.9072 	-1.63452 	3.47468e-20
0.117618 	14.9286 	-1.63442 	3.75816e-20
0.117868 	14.95 	-1.63432 	4.04164e-20
0.118118 	14.9714 	-1.63422 	4.32512e-20
0.118368 	14.9928 	-1.63412 	4.6086e-20
0.118619 	15.0142 	-1.63402 	4.89209e-20
0.118869 	15.0357 	-1.63392 	5.17557e-20
0.119119 	15.0571 	-1.63382 	5.45905e-20
0.119369 	15.0736 	-1.63343 	5.30278e-20
0.11962 	15.086 	-1.6328 	4.77664e-20
0.11987 	15.0984 	-1.63216 	4.2505e-20
0.12012 	15.1109 	-1.63152 	3.72436e-20
0.12037 	15.1233 	-1.63089 	3.19822e-20
0.120621 	15.1357 	-1.63025 	2.67208e-20
0.120871 	15.1481 	-1.62961 	2.14595e-20
0.121121 	15.1606 	-1.62898 	1.61981e-20
0.121371 	15.173 	-1.62834 	1.09367e-20
0.121622 	15.1854 	-1.6277 	5.6753e-21
0.121872 	15.1978 	-1.62707 	4.13916e-22
0.122122 	15.2103 	-1.62643 	-4.84747e-21
0.122372 	15.2253 	-1.62595 	-1.14591e-20
0.122623 	15.2476 	-1.6259 	-2.18803e-20
0.122873 	15.2699 	-1.62585 	-3.23015e-20
0.123123 	15.2922 	-1.6258 	-4.27227e-20
0.123373 	15.3145 	-1.62576 	-5.31438e-20
0.123624 	15.3368 	-1.62571 	-6.3565e-20
0.123874 	15.359 	-1.62566 	-7.39862e-20
0.124124 	15.3813 	-1.62561 	-8.44074e-20
0.124374 	15.3948 	-1.62503 	-7.48467e-20
0.124625 	15.4077 	-1.62441 	-6.39039e-20
0.124875 	15.4206 	-1.62379 	-5.29612e-20
0.125125 	15.4335 	-1.62318 	-4.20184e-20
0.125375 	15.4463 	-1.62256 	-3.10757e-20
0.125626 	15.4592 	-1.62194 	-2.01329e-20
0.125876 	15.4721 	-1.62132 	-9.19016e-21
0.126126 	15.485 	-1.6207 	1.75259e-21
0.126376 	15.4968 	-1.62017 	1.1261e-20
0.126627 	15.5085 	-1.61964 	2.06589e-20
0.126877 	15.5203 	-1.61911 	3.00569e-20
0.127127 	15.532 	-1.61858 	3.94548e-20
0.127377 	15.5437 	-1.61805 	4.88528e-20
0.127628 	15.5555 	-1.61752 	5.82508e-20
0.127878 	15.5672 	-1.61699 	6.76487e-20
0.128128 	15.5789 	-1.61646 	7.70467e-20
0.128378 	15.5906 	-1.61593 	8.64446e-20
0.128629 	15.6024 	-1.6154 	9.58426e-20
0.128879 	15.6141 	-1.61487 	1.05241e-19
0.129129 	15.6258 	-1.61434 	1.14639e-19
0.129379 	15.6337 	-1.61366 	9.98828e-20
0.12963 	15.641 	-1.61294 	8.16551e-20
0.12988 	15.6483 	-1.61223 	6.34274e-20
0.13013 	15.6556 	-1.61152 	4.51996e-20
0.13038 	15.663 	-1.6108 	2.69719e-20
0.130631 	15.6703 	-1.61009 	8.74417e-21
0.130881 	15.6776 	-1.60938 	-9.48356e-21
0.131131 	15.6849 	-1.60866 	-2.77113e-20
0.131381 	15.6922 	-1.60795 	-4.5939e-20
0.131632 	15.6995 	-1.60724 	-6.41668e-20
0.131882 	15.7099 	-1.60665 	-7.80342e-20
0.132132 	15.7222 	-1.60613 	-8.90701e-20
0.132382 	15.7346 	-1.60562 	-1.00106e-19
0.132633 	15.7469 	-1.60511 	-1.11142e-19
0.132883 	15.7593 	-1.60459 	-1.22178e-19
0.133133 	15.7717 	-1.60408 	-1.33214e-19
0.133383 	15.784 	-1.60357 	-1.4425e-19
0.133634 	15.7964 	-1.60305 	-1.55286e-19
0.133884 	15.8087 	-1.60254 	-1.66321e-19
0.134134 	15.8211 	-1.60202 	-1.77357e-19
0.134384 	15.831 	-1.60141 	-1.75045e-19
0.134635 	15.8387 	-1.60071 	-1.60689e-19
0.134885 	15.8464 	-1.6 	-1.46333e-19
0.135135 	15.8542 	-1.5993 	-1.31976e-19
0.135385 	15.8619 	-1.59859 	-1.1762e-19
0.135636 	15.8696 	-1.59789 	-1.03264e-19
0.135886 	15.8773 	-1.59718 	-8.89074e-20
0.136136 	15.8851 	-1.59648 	-7.45511e-20
0.136386 	15.8928 	-1.59577 	-6.01948e-20
0.136637 	15.9005 	-1.59507 	-4.58385e-20
0.136887 	15.9082 	-1.59436 	-3.14822e-20
0.137137 	15.916 	-1.59366 	-1.71259e-20
0.137387 	15.9235 	-1.59299 	-9.11208e-21
0.137638 	15.9305 	-1.59237 	-1.27804e-20
0.137888 	15.9376 	-1.59176 	-1.64487e-20
0.138138 	15.9447 	-1.59115 	-2.0117e-20
0.138388 	15.9518 	-1.59054 	-2.37853e-20
0.138639 	15.9589 	-1.58993 	-2.74536e-20
0.138889 	15.966 	-1.58931 	-3.11219e-20
0.139139 	15.9731 	-1.5887 	-3.47902e-20
0.139389 	15.9802 	-1.58809 	-3.84585e-20
0.13964 	15.9853 	-1.58721 	-2.534e-20
0.13989 	15.9902 	-1.5863 	-1.0246e-20
0.14014 	15.9951 	-1.58539 	4.84802e-21
0.14039 	16 	-1.58449 	1.9942e-20
0.140641 	16.0049 	-1.58358 	3.50361e-20
0.140891 	16.0098 	-1.58267 	5.01301e-20
0.141141 	16.0156 	-1.58188 	6.76561e-20
0.141391 	16.0231 	-1.5813 	8.93859e-20
0.141642 	16.0306 	-1.58073 	1.11116e-19
0.141892 	16.0381 	-1.58015 	1.32846e-19
0.142142 	16.0456 	-1.57957 	1.54575e-19
0.142392 	16.0531 	-1.579 	1.76305e-19
0.142643 	16.0606 	-1.57842 	1.98035e-19
0.142893 	16.0681 	-1.57784 	2.19765e-19
0.143143 	16.0756 	-1.57726 	2.41495e-19
0.143393 	16.0831 	-1.57669 	2.63224e-19
0.143644 	16.0906 	-1.57611 	2.84954e-19
0.143894 	16.0981 	-1.57553 	3.06684e-19
0.144144 	16.1056 	-1.57496 	3.28414e-19
0.144394 	16.1131 	-1.57438 	3.50144e-19
0.144645 	16.1206 	-1.5738 	3.71873e-19
0.144895 	16.126 	-1.57295 	3.60488e-19
0.145145 	16.1313 	-1.57208 	3.46549e-19
0.145395 	16.1365 	-1.5712 	3.32611e-19
0.145646 	16.1418 	-1.57033 	3.18672e-19
0.145896 	16.147 	-1.56946 	3.04733e-19
0.146146 	16.1523 	-1.56859 	2.90794e-19
0.146396 	16.1575 	-1.56771 	2.76856e-19
0.146647 	16.1627 	-1.56684 	2.62917e-19
0.146897 	16.168 	-1.56597 	2.48978e-19
0.147147 	16.1732 	-1.56509 	2.3504e-19
0.147397 	16.1785 	-1.56422 	2.21101e-19
0.147648 	16.1837 	-1.56335 	2.07162e-19
0.147898 	16.189 	-1.56247 	1.93223e-19
0.148148 	16.1942 	-1.5616 	1.79285e-19
0.148398 	16.1995 	-1.56073 	1.65346e-19
0.148649 	16.2047 	-1.55986 	1.51407e-19
0.148899 	16.21 	-1.55898 	1.37468e-19
0.149149 	16.2152 	-1.55811 	1.2353e-19
0.149399 	16.2204 	-1.55724 	1.09591e-19
0.14965 	16.2254 	-1.55643 	1.04249e-19
0.1499 	16.2303 	-1.55566 	1.0251e-19
0.15015 	16.2328 	-1.55459 	1.0535e-19
0.1504 	16.2372 	-1.55376 	1.10606e-19
0.150651 	16.2426 	-1.55305 	1.16847e-19
0.150901 	16.248 	-1.55234 	1.23089e-19
0.151151 	16.2534 	-1.55162 	1.2933e-19
0.151401 	16.2588 	-1.55091 	1.35572e-19
0.151652 	16.2642 	-1.5502 	1.41813e-19
0.151902 	16.2695 	-1.54948 	1.47286e-19
0.152152 	16.2744 	-1.5487 	1.5017e-19
0.152402 	16.2793 	-1.54792 	1.53054e-19
0.152653 	16.2842 	-1.54715 	1.55938e-19
0.152903 	16.2891 	-1.54637 	1.58822e-19
0.153153 	16.294 	-1.54559 	1.61706e-19
0.153403 	16.2989 	-1.54482 	1.64589e-19
0.153654 	16.3038 	-1.54404 	1.67473e-19
0.153904 	16.3087 	-1.54326 	1.70357e-19
0.154154 	16.3136 	-1.54249 	1.73241e-19
0.154404 	16.3185 	-1.54171 	1.76125e-19
0.154655 	16.3234 	-1.54093 	1.79009e-19
0.154905 	16.3283 	-1.54016 	1.81893e-19
0.155155 	16.3332 	-1.53938 	1.84777e-19
0.155405 	16.337 	-1.53846 	1.81404e-19
0.155656 	16.3393 	-1.53736 	1.69896e-19
0.155906 	16.3416 	-1.53626 	1.58388e-19
0.156156 	16.3439 	-1.53516 	1.46881e-19
0.156406 	16.3463 	-1.53406 	1.35373e-19
0.156657 	16.3486 	-1.53296 	1.23865e-19
0.156907 	16.3509 	-1.53186 	1.12358e-19
0.157157 	16.3532 	-1.53075 	1.0085e-19
0.157407 	16.3555 	-1.52965 	8.93423e-20
0.157658 	16.3578 	-1.52855 	7.78346e-20
0.157908 	16.3601 	-1.52745 	6.63269e-20
0.158158 	16.3624 	-1.52635 	5.48193e-20
0.158408 	16.3647 	-1.52525 	4.33116e-20
0.158659 	16.367 	-1.52415 	3.18039e-20
0.158909 	16.3694 	-1.52305 	2.02962e-20
0.159159 	16.3717 	-1.52195 	8.78855e-21
0.159409 	16.3755 	-1.52103 	2.94493e-21
0.15966 	16.381 	-1.52032 	3.30317e-21
0.15991 	16.3865 	-1.51962 	3.66142e-21
0.16016 	16.392 	-1.51891 	4.01966e-21
0.16041 	16.3976 	-1.5182 	4.37791e-21
0.160661 	16.4031 	-1.51749 	4.73615e-21
0.160911 	16.406 	-1.51645 	6.84765e-21
0.161161 	16.4088 	-1.51541 	9.00667e-21
0.161411 	16.4117 	-1.51437 	1.11657e-20
0.161662 	16.4145 	-1.51333 	1.33247e-20
0.161912 	16.4174 	-1.51229 	1.54837e-20
0.162162 	16.4202 	-1.51124 	1.76428e-20
0.162412 	16.4231 	-1.5102 	1.98018e-20
0.162663 	16.4259 	-1.50916 	2.19608e-20
0.162913 	16.4287 	-1.5082 	2.26512e-20
0.163163 	16.4313 	-1.50727 	2.2835e-20
0.163413 	16.434 	-1.50634 	2.30188e-20
0.163664 	16.4366 	-1.50541 	2.32027e-20
0.163914 	16.4393 	-1.50448 	2.33865e-20
0.164164 	16.442 	-1.50355 	2.35703e-20
0.164414 	16.4446 	-1.50262 	2.37541e-20
0.164665 	16.4473 	-1.50169 	2.39379e-20
0.164915 	16.4499 	-1.50076 	2.41218e-20
0.165165 	16.4526 	-1.49982 	2.43056e-20
0.165415 	16.4552 	-1.49889 	2.44894e-20
0.165666 	16.4579 	-1.49796 	2.46732e-20
0.165916 	16.4606 	-1.49703 	2.4857e-20
0.166166 	16.4628 	-1.49605 	2.47631e-20
0.166416 	16.4632 	-1.49487 	2.35228e-20
0.166667 	16.4636 	-1.49368 	2.22826e-20
0.166917 	16.464 	-1.49249 	2.10424e-20
0.167167 	16.4644 	-1.49131 	1.98021e-20
0.167417 	16.4647 	-1.49012 	1.85619e-20
0.167668 	16.4651 	-1.48894 	1.73217e-20
0.167918 	16.4655 	-1.48775 	1.60815e-20
0.168168 	16.4659 	-1.48656 	1.48412e-20
0.168418 	16.4684 	-1.48561 	2.13748e-20
0.168669 	16.4717 	-1.48474 	3.0791e-20
0.168919 	16.475 	-1.48387 	4.02071e-20
0.169169 	16.4783 	-1.48301 	4.96233e-20
0.169419 	16.4815 	-1.48214 	5.90395e-20
0.16967 	16.4848 	-1.48127 	6.84556e-20
0.16992 	16.4881 	-1.4804 	7.78718e-20
0.17017 	16.4914 	-1.47953 	8.72879e-20
0.17042 	16.4947 	-1.47867 	9.67041e-20
0.170671 	16.4979 	-1.4778 	1.0612e-19
0.170921 	16.5012 	-1.47693 	1.15536e-19
0.171171 	16.5045 	-1.47606 	1.24953e-19
0.171421 	16.5078 	-1.47519 	1.34369e-19
0.171672 	16.5105 	-1.47427 	1.39844e-19
0.171922 	16.5115 	-1.47314 	1.31433e-19
0.172172 	16.5124 	-1.47201 	1.23021e-19
0.172422 	16.5134 	-1.47087 	1.14609e-19
0.172673 	16.5143 	-1.46974 	1.06198e-19
0.172923 	16.5152 	-1.46861 	9.77861e-20
0.173173 	16.5162 	-1.46748 	8.93744e-20
0.173423 	16.5171 	-1.46635 	8.09628e-20
0.173674 	16.5181 	-1.46522 	7.25511e-20
0.173924 	16.519 	-1.46409 	6.41394e-20
0.174174 	16.5199 	-1.46296 	5.57278e-20
0.174424 	16.5209 	-1.46182 	4.73161e-20
0.174675 	16.5218 	-1.46069 	3.89045e-20
0.174925 	16.5228 	-1.45956 	3.04928e-20
0.175175 	16.5237 	-1.45843 	2.20811e-20
0.175425 	16.5246 	-1.4573 	1.36695e-20
0.175676 	16.5256 	-1.45617 	5.2578e-21
0.175926 	16.5265 	-1.45504 	-3.15387e-21
0.176176 	16.5275 	-1.45391 	-1.15655e-20
0.176426 	16.5284 	-1.45278 	-1.99772e-20
0.176677 	16.5293 	-1.45164 	-2.83889e-20
0.176927 	16.5303 	-1.45051 	-3.68005e-20
0.177177 	16.5312 	-1.44939 	-4.30601e-20