0 	0 	0 	0
0.00025025 	-0.611918 	-0.00172923 	6.79282e-25
0.000500501 	-0.701334 	-0.00535024 	-7.83268e-25
0.000750751 	-0.705883 	-0.00935091 	-6.33615e-24
0.001001 	-0.694718 	-0.0135239 	0
0.00125125 	-0.681801 	-0.0177489 	-1.10333e-23
0.0015015 	-0.665899 	-0.0220476 	1.8867e-24
0.00175175 	-0.649163 	-0.0263856 	-2.04691e-25
0.002002 	-0.63064 	-0.0307906 	0
0.00225225 	-0.614719 	-0.0351513 	-2.8593e-23
0.0025025 	-0.597351 	-0.0395677 	3.16256e-23
0.00275275 	-0.579768 	-0.0440061 	1.70214e-23
0.003003 	-0.562305 	-0.0484557 	1.47892e-23
0.00325325 	-0.545094 	-0.0529097 	-3.94909e-23
0.0035035 	-0.527714 	-0.0573814 	-4.31789e-23
0.00375375 	-0.510372 	-0.0618625 	-4.10308e-23
0.004004 	-0.492701 	-0.0663683 	-1.09226e-23
0.00425425 	-0.475543 	-0.0708645 	2.91901e-23
0.0045045 	-0.458617 	-0.0753557 	7.55908e-23
0.00475475 	-0.441353 	-0.0798683 	1.09159e-22
0.00500501 	-0.424264 	-0.0843836 	8.30622e-23
0.00525526 	-0.407107 	-0.088905 	-1.93372e-23
0.00550551 	-0.389889 	-0.093437 	-5.84876e-23
0.00575576 	-0.372858 	-0.097963 	-5.94808e-23
0.00600601 	-0.355687 	-0.102501 	-6.27391e-23
0.00625626 	-0.338633 	-0.107037 	-4.15991e-23
0.00650651 	-0.321522 	-0.111579 	-8.23269e-24
0.00675676 	-0.304396 	-0.116124 	2.5098e-23
0.00700701 	-0.287266 	-0.120672 	1.67746e-23
0.00725726 	-0.27012 	-0.125222 	1.45863e-23
0.00750751 	-0.252947 	-0.129776 	7.40475e-23
0.00775776 	-0.235891 	-0.13432 	1.30594e-22
0.00800801 	-0.218852 	-0.138861 	9.8294e-23
0.00825826 	-0.201795 	-0.143403 	4.41402e-23
0.00850851 	-0.184477 	-0.147963 	-2.79904e-23
0.00875876 	-0.16761 	-0.152487 	-1.32722e-22
0.00900901 	-0.150462 	-0.157032 	-1.98364e-22
0.00925926 	-0.132707 	-0.161622 	-1.58708e-22
0.00950951 	-0.116082 	-0.166118 	-2.15951e-22
0.00975976 	-0.0988083 	-0.170666 	-1.78168e-22
0.01001 	-0.0810036 	-0.175254 	-6.30877e-23
0.0102603 	-0.0642087 	-0.179751 	2.16656e-22
0.0105105 	-0.046771 	-0.184299 	2.39085e-22
0.0107608 	-0.0293334 	-0.188848 	2.61513e-22
0.011011 	-0.0106827 	-0.193488 	2.06301e-22
0.0112613 	0.00568499 	-0.197931 	5.33023e-22
0.0115115 	0.0233303 	-0.202481 	5.60489e-22
0.0117618 	0.0416236 	-0.207082 	3.94652e-22
0.012012 	0.0602373 	-0.211701 	-5.50053e-24
0.0122623 	0.0764567 	-0.216108 	4.5884e-24
0.0125125 	0.094359 	-0.220657 	1.3855e-23
0.0127628 	0.113146 	-0.225278 	2.32391e-23
0.013013 	0.132805 	-0.22997 	6.80607e-23
0.0132633 	0.149316 	-0.234372 	5.7684e-22
0.0135135 	0.166419 	-0.238824 	8.8227e-22
0.0137638 	0.185165 	-0.243416 	6.84516e-22
0.014014 	0.205359 	-0.248128 	1.54504e-22
0.0142643 	0.224026 	-0.252696 	-5.43523e-22
0.0145145 	0.240942 	-0.257097 	-1.43428e-21
0.0147648 	0.258151 	-0.261524 	-2.18145e-21
0.015015 	0.278273 	-0.266198 	-1.54518e-21
0.0152653 	0.298838 	-0.270909 	-7.04921e-22
0.0155155 	0.317962 	-0.275479 	-1.99672e-22
0.0157658 	0.335343 	-0.27988 	-9.97277e-23
0.016016 	0.352724 	-0.28428 	2.16196e-25
0.0162663 	0.372742 	-0.288903 	-1.30346e-22
0.0165165 	0.393762 	-0.293612 	-2.68199e-22
0.0167668 	0.414783 	-0.29832 	-4.06051e-22
0.017017 	0.432712 	-0.30272 	-3.01939e-22
0.0172673 	0.450624 	-0.307118 	-1.96567e-22
0.0175175 	0.470064 	-0.311644 	-1.87896e-22
0.0177678 	0.49021 	-0.316229 	-2.13567e-22
0.018018 	0.511778 	-0.320934 	-2.62192e-22
0.0182683 	0.533184 	-0.325622 	-3.07827e-22
0.0185185 	0.551705 	-0.330016 	-3.00288e-22
0.0187688 	0.570625 	-0.334444 	-2.5585e-22
0.019019 	0.591199 	-0.339009 	-5.82842e-23
0.0192693 	0.611773 	-0.343573 	1.39281e-22
0.0195195 	0.632557 	-0.348155 	3.24848e-22
0.0197698 	0.654775 	-0.352854 	4.28011e-22
0.02002 	0.675237 	-0.357372 	8.21841e-22
0.0202703 	0.694941 	-0.361802 	1.26984e-21
0.0205205 	0.716268 	-0.366363 	1.21282e-21
0.0207708 	0.737595 	-0.370924 	1.1558e-21
0.021021 	0.758922 	-0.375485 	1.09878e-21
0.0212713 	0.780249 	-0.380047 	1.04176e-21
0.0215215 	0.80215 	-0.384653 	7.79722e-22
0.0217718 	0.823517 	-0.389178 	4.87353e-22
0.022022 	0.845384 	-0.393708 	4.30241e-22
0.0222723 	0.867578 	-0.398264 	3.62003e-22
0.0225225 	0.889772 	-0.40282 	2.93765e-22
0.0227728 	0.911966 	-0.407377 	2.25527e-22
0.023023 	0.934161 	-0.411933 	1.57289e-22
0.0232733 	0.956268 	-0.416481 	8.5524e-23
0.0235235 	0.978035 	-0.420993 	5.75791e-24
0.0237738 	1.00048 	-0.425487 	2.08723e-23
0.024024 	1.02313 	-0.429985 	5.21863e-23
0.0242743 	1.04578 	-0.434484 	8.35003e-23
0.0245245 	1.06843 	-0.438982 	1.14814e-22
0.0247748 	1.09108 	-0.44348 	1.46128e-22
0.025025 	1.11373 	-0.447978 	1.77442e-22
0.0252753 	1.13637 	-0.452476 	2.08756e-22
0.0255255 	1.16064 	-0.457101 	2.09389e-22
0.0257758 	1.184 	-0.46161 	1.58284e-21
0.026026 	1.20597 	-0.46597 	4.18185e-21
0.0262763 	1.22936 	-0.470432 	4.97289e-21
0.0265265 	1.25307 	-0.474917 	5.3562e-21
0.0267768 	1.27678 	-0.479402 	5.73951e-21
0.027027 	1.3005 	-0.483888 	6.12281e-21
0.0272773 	1.32421 	-0.488373 	6.50612e-21
0.0275275 	1.35008 	-0.49302 	3.98744e-21
0.0277778 	1.3762 	-0.497685 	1.14749e-21
0.028028 	1.40099 	-0.502211 	-3.6839e-22
0.0282783 	1.42411 	-0.506561 	-2.30461e-22
0.0285285 	1.44724 	-0.510912 	-9.25323e-23
0.0287788 	1.47037 	-0.515263 	4.53964e-23
0.029029 	1.49486 	-0.519704 	5.03877e-23
0.0292793 	1.51978 	-0.524173 	1.46948e-23
0.0295295 	1.54619 	-0.528748 	1.25806e-22
0.0297798 	1.57364 	-0.533399 	3.39652e-22
0.03003 	1.6011 	-0.538049 	5.53499e-22
0.0302803 	1.62856 	-0.542699 	7.67345e-22
0.0305305 	1.65434 	-0.547177 	7.86239e-22
0.0307808 	1.67876 	-0.551515 	6.4755e-22
0.031031 	1.70319 	-0.555852 	5.08861e-22
0.0312813 	1.72762 	-0.56019 	3.70172e-22
0.0315315 	1.75204 	-0.564528 	2.31482e-22
0.0317818 	1.7785 	-0.569005 	3.46511e-22
0.032032 	1.80624 	-0.573564 	5.7996e-22
0.0322823 	1.83521 	-0.578198 	8.83058e-22
0.0325325 	1.86417 	-0.582832 	1.18616e-21
0.0327828 	1.89314 	-0.587467 	1.48925e-21
0.033033 	1.92211 	-0.592101 	1.79235e-21
0.0332833 	1.94865 	-0.596493 	1.60439e-21
0.0335335 	1.97453 	-0.600817 	1.28138e-21
0.0337838 	2.00041 	-0.605142 	9.58367e-22
0.034034 	2.02737 	-0.609537 	5.29043e-22
0.0342843 	2.05613 	-0.61405 	-7.79126e-23
0.0345345 	2.08489 	-0.618563 	-6.84868e-22
0.0347848 	2.11365 	-0.623076 	-1.29182e-21
0.035035 	2.14241 	-0.627589 	-1.89878e-21
0.0352853 	2.17117 	-0.632101 	-2.50573e-21
0.0355355 	2.2005 	-0.636646 	-3.02197e-21
0.0357858 	2.23115 	-0.641266 	-3.32121e-21
0.036036 	2.26162 	-0.645867 	-3.58394e-21
0.0362863 	2.28911 	-0.65018 	-3.28284e-21
0.0365365 	2.31796 	-0.654568 	-3.28967e-21
0.0367868 	2.34854 	-0.659051 	-3.6875e-21
0.037037 	2.37913 	-0.663534 	-4.08533e-21
0.0372873 	2.40971 	-0.668017 	-4.48317e-21
0.0375375 	2.4403 	-0.672501 	-4.881e-21
0.0377878 	2.47088 	-0.676984 	-5.27883e-21
0.038038 	2.50147 	-0.681467 	-5.67666e-21
0.0382883 	2.53205 	-0.68595 	-6.0745e-21
0.0385385 	2.56183 	-0.690381 	-6.57228e-21
0.0387888 	2.59133 	-0.694794 	-7.10623e-21
0.039039 	2.62082 	-0.699206 	-7.64017e-21
0.0392893 	2.6522 	-0.703688 	-6.15084e-21
0.0395395 	2.68203 	-0.707985 	-5.75272e-21
0.0397898 	2.71357 	-0.712348 	-5.32118e-21
0.04004 	2.74511 	-0.71671 	-4.88963e-21
0.0402903 	2.77665 	-0.721072 	-4.45809e-21
0.0405405 	2.80819 	-0.725435 	-4.02654e-21
0.0407908 	2.83974 	-0.729797 	-3.595e-21
0.041041 	2.87128 	-0.734159 	-3.16346e-21
0.0412913 	2.90282 	-0.738521 	-2.73191e-21
0.0415415 	2.93436 	-0.742884 	-2.30037e-21
0.0417918 	2.9659 	-0.747246 	-1.86883e-21
0.042042 	3.00015 	-0.751739 	-2.37366e-21
0.0422923 	3.03536 	-0.756279 	-3.21207e-21
0.0425425 	3.07057 	-0.760818 	-4.05049e-21
0.0427928 	3.1044 	-0.765235 	-5.8557e-21
0.043043 	3.13618 	-0.76947 	-9.09238e-21
0.0432933 	3.16795 	-0.773704 	-1.23291e-20
0.0435435 	3.19973 	-0.777938 	-1.55657e-20
0.0437938 	3.23151 	-0.782173 	-1.88024e-20
0.044044 	3.26329 	-0.786407 	-2.20391e-20
0.0442943 	3.29597 	-0.790672 	-2.442e-20
0.0445445 	3.3304 	-0.794993 	-2.51516e-20
0.0447948 	3.36482 	-0.799314 	-2.58832e-20
0.045045 	3.40363 	-0.80383 	-2.28071e-20
0.0452953 	3.44266 	-0.808355 	-1.95467e-20
0.0455455 	3.48168 	-0.81288 	-1.62863e-20
0.0457958 	3.52071 	-0.817404 	-1.3026e-20
0.046046 	3.55974 	-0.821929 	-9.76559e-21
0.0462963 	3.59876 	-0.826454 	-6.50522e-21
0.0465465 	3.63677 	-0.830896 	-4.05422e-21
0.0467968 	3.67211 	-0.835119 	-3.72149e-21
0.047047 	3.70745 	-0.839342 	-3.38877e-21
0.0472973 	3.74279 	-0.843565 	-3.05604e-21
0.0475475 	3.77813 	-0.847788 	-2.72332e-21
0.0477978 	3.81347 	-0.852011 	-2.39059e-21
0.048048 	3.85173 	-0.856342 	-1.6653e-21
0.0482983 	3.89228 	-0.860757 	-6.34441e-22
0.0485485 	3.93282 	-0.865172 	3.9642e-22
0.0487988 	3.97337 	-0.869587 	1.42728e-21
0.049049 	4.01391 	-0.874002 	2.45814e-21
0.0492993 	4.05445 	-0.878417 	3.489e-21
0.0495495 	4.095 	-0.882832 	4.51986e-21
0.0497998 	4.13712 	-0.887283 	5.5466e-21
0.0500501 	4.1805 	-0.891763 	6.57006e-21
0.0503003 	4.22388 	-0.896244 	7.59352e-21
0.0505506 	4.26726 	-0.900724 	8.61698e-21
0.0508008 	4.30742 	-0.904966 	8.10552e-21
0.0510511 	4.34681 	-0.90915 	7.23061e-21
0.0513013 	4.38908 	-0.913417 	7.0189e-21
0.0515516 	4.43362 	-0.917747 	7.32945e-21
0.0518018 	4.47816 	-0.922077 	7.64e-21
0.0520521 	4.52269 	-0.926408 	7.95056e-21
0.0523023 	4.56723 	-0.930738 	8.26111e-21
0.0525526 	4.61177 	-0.935069 	8.57166e-21
0.0528028 	4.6563 	-0.939399 	8.88221e-21
0.0530531 	4.7004 	-0.943716 	9.31141e-21
0.0533033 	4.7425 	-0.947976 	1.02818e-20
0.0535536 	4.7846 	-0.952235 	1.12522e-20
0.0538038 	4.8267 	-0.956494 	1.22226e-20
0.0540541 	4.86881 	-0.960753 	1.31929e-20
0.0543043 	4.91091 	-0.965012 	1.41633e-20
0.0545546 	4.95301 	-0.969272 	1.51337e-20
0.0548048 	4.99972 	-0.973671 	1.19613e-20
0.0550551 	5.04706 	-0.978089 	8.22041e-21
0.0553053 	5.09065 	-0.982249 	7.22378e-21
0.0555556 	5.13374 	-0.986375 	6.59973e-21
0.0558058 	5.17682 	-0.9905 	5.97568e-21
0.0560561 	5.2199 	-0.994626 	5.35163e-21
0.0563063 	5.2641 	-0.998752 	4.98647e-21
0.0565566 	5.30938 	-1.00288 	4.87094e-21
0.0568068 	5.35467 	-1.00701 	4.75541e-21
0.0570571 	5.39995 	-1.01114 	4.63987e-21
0.0573073 	5.44524 	-1.01526 	4.52434e-21
0.0575576 	5.49052 	-1.01939 	4.40881e-21
0.0578078 	5.5358 	-1.02352 	4.29327e-21
0.0580581 	5.58109 	-1.02765 	4.17774e-21
0.0583083 	5.62878 	-1.03183 	4.3743e-21
0.0585586 	5.67895 	-1.03608 	4.88956e-21
0.0588088 	5.72911 	-1.04032 	5.40481e-21
0.0590591 	5.77927 	-1.04457 	5.92007e-21
0.0593093 	5.82943 	-1.04881 	6.43532e-21
0.0595596 	5.8796 	-1.05306 	6.95057e-21
0.0598098 	5.92976 	-1.0573 	7.46583e-21
0.0600601 	5.97831 	-1.06145 	7.43496e-21
0.0603103 	6.02403 	-1.06541 	6.44467e-21
0.0605606 	6.06975 	-1.06938 	5.45438e-21
0.0608108 	6.11547 	-1.07335 	4.46408e-21
0.0610611 	6.16119 	-1.07732 	3.47379e-21
0.0613113 	6.20691 	-1.08129 	2.4835e-21
0.0615616 	6.25263 	-1.08526 	1.49321e-21
0.0618118 	6.29835 	-1.08923 	5.02915e-22
0.0620621 	6.3462 	-1.09323 	-5.02939e-22
0.0623123 	6.39625 	-1.09725 	-1.52485e-21
0.0625626 	6.4463 	-1.10128 	-2.54676e-21
0.0628128 	6.49635 	-1.1053 	-3.56867e-21
0.0630631 	6.5464 	-1.10933 	-4.59059e-21
0.0633133 	6.59646 	-1.11336 	-5.6125e-21
0.0635636 	6.64651 	-1.11738 	-6.63441e-21
0.0638138 	6.69656 	-1.12141 	-7.65632e-21
0.0640641 	6.74661 	-1.12543 	-8.67823e-21
0.0643143 	6.79789 	-1.12943 	-9.38562e-21
0.0645646 	6.84969 	-1.13342 	-9.96118e-21
0.0648148 	6.90149 	-1.13741 	-1.05367e-20
0.0650651 	6.95329 	-1.1414 	-1.11123e-20
0.0653153 	7.00458 	-1.14537 	-1.23066e-20
0.0655656 	7.05185 	-1.1491 	-1.82898e-20
0.0658158 	7.09912 	-1.15284 	-2.42731e-20
0.0660661 	7.14948 	-1.15655 	-2.34776e-20
0.0663163 	7.20023 	-1.16026 	-2.18159e-20
0.0665666 	7.25098 	-1.16396 	-2.01542e-20
0.0668168 	7.30173 	-1.16767 	-1.84925e-20
0.0670671 	7.35248 	-1.17137 	-1.68307e-20
0.0673173 	7.40248 	-1.17509 	-1.55914e-20
0.0675676 	7.4513 	-1.17883 	-1.50149e-20
0.0678178 	7.50012 	-1.18257 	-1.44384e-20
0.0680681 	7.54894 	-1.18631 	-1.3862e-20
0.0683183 	7.59776 	-1.19005 	-1.32855e-20
0.0685686 	7.64659 	-1.19379 	-1.27091e-20
0.0688188 	7.69541 	-1.19753 	-1.21326e-20
0.0690691 	7.74423 	-1.20127 	-1.15561e-20
0.0693193 	7.79305 	-1.20501 	-1.09797e-20
0.0695696 	7.84188 	-1.20875 	-1.04032e-20
0.0698198 	7.8907 	-1.21249 	-9.82676e-21
0.0700701 	7.94152 	-1.21623 	-1.04398e-20
0.0703203 	7.99398 	-1.21997 	-1.20259e-20
0.0705706 	8.04643 	-1.2237 	-1.3612e-20
0.0708208 	8.09889 	-1.22744 	-1.51981e-20
0.0710711 	8.15134 	-1.23117 	-1.67842e-20
0.0713213 	8.19932 	-1.23466 	-1.55045e-20
0.0715716 	8.24721 	-1.23814 	-1.41724e-20
0.0718218 	8.2951 	-1.24162 	-1.28403e-20
0.0720721 	8.34299 	-1.2451 	-1.15082e-20
0.0723223 	8.39089 	-1.24858 	-1.01762e-20
0.0725726 	8.43878 	-1.25206 	-8.8441e-21
0.0728228 	8.48667 	-1.25554 	-7.51203e-21
0.0730731 	8.53456 	-1.25902 	-6.17996e-21
0.0733233 	8.58245 	-1.2625 	-4.84788e-21
0.0735736 	8.63035 	-1.26599 	-3.51581e-21
0.0738238 	8.67824 	-1.26947 	-2.18374e-21
0.0740741 	8.72613 	-1.27295 	-8.51671e-22
0.0743243 	8.77525 	-1.27636 	-1.37549e-23
0.0745746 	8.82591 	-1.27962 	-3.1259e-22
0.0748248 	8.8766 	-1.28287 	-6.40259e-22
0.0750751 	8.92728 	-1.28613 	-9.67929e-22
0.0753253 	8.97796 	-1.28938 	-1.2956e-21
0.0755756 	9.02865 	-1.29264 	-1.62327e-21
0.0758258 	9.07933 	-1.29589 	-1.95094e-21
0.0760761 	9.13002 	-1.29914 	-2.27861e-21
0.0763263 	9.1807 	-1.3024 	-2.60628e-21
0.0765766 	9.23138 	-1.30565 	-2.93395e-21
0.0768268 	9.28207 	-1.3089 	-3.26161e-21
0.0770771 	9.33275 	-1.31216 	-3.58928e-21
0.0773273 	9.38343 	-1.31541 	-3.91695e-21
0.0775776 	9.43063 	-1.3185 	-6.8919e-21
0.0778278 	9.47695 	-1.32154 	-1.05345e-20
0.0780781 	9.52326 	-1.32458 	-1.4177e-20
0.0783283 	9.56958 	-1.32762 	-1.78196e-20
0.0785786 	9.6159 	-1.33066 	-2.14621e-20
0.0788288 	9.66259 	-1.33344 	-2.09244e-20
0.0790791 	9.70929 	-1.33621 	-2.03044e-20
0.0793293 	9.75599 	-1.33898 	-1.96843e-20
0.0795796 	9.80269 	-1.34175 	-1.90643e-20
0.0798298 	9.84939 	-1.34452 	-1.84443e-20
0.0800801 	9.89609 	-1.34729 	-1.78242e-20
0.0803303 	9.94279 	-1.35007 	-1.72042e-20
0.0805806 	9.98949 	-1.35284 	-1.65842e-20
0.0808308 	10.0362 	-1.35561 	-1.59642e-20
0.0810811 	10.0829 	-1.35843 	-1.50602e-20
0.0813313 	10.1296 	-1.36143 	-1.32664e-20
0.0815816 	10.1763 	-1.36442 	-1.14726e-20
0.0818318 	10.223 	-1.36742 	-9.67881e-21
0.0820821 	10.2697 	-1.37041 	-7.88502e-21
0.0823323 	10.3164 	-1.37341 	-6.09122e-21
0.0825826 	10.3631 	-1.3764 	-4.29743e-21
0.0828328 	10.4098 	-1.37939 	-2.50363e-21
0.0830831 	10.4565 	-1.38239 	-7.0984e-22
0.0833333 	10.5036 	-1.38519 	-3.51644e-21
0.0835836 	10.5507 	-1.38792 	-7.86995e-21
0.0838338 	10.5979 	-1.39065 	-1.22235e-20
0.0840841 	10.645 	-1.39338 	-1.6577e-20
0.0843343 	10.6907 	-1.39604 	-1.89203e-20
0.0845846 	10.7338 	-1.3986 	-1.80139e-20
0.0848348 	10.777 	-1.40115 	-1.71075e-20
0.0850851 	10.8201 	-1.40371 	-1.62012e-20
0.0853353 	10.8633 	-1.40627 	-1.52948e-20
0.0855856 	10.9065 	-1.40883 	-1.43884e-20
0.0858358 	10.9496 	-1.41138 	-1.34821e-20
0.0860861 	10.9928 	-1.41394 	-1.25757e-20
0.0863363 	11.0359 	-1.4165 	-1.16693e-20
0.0865866 	11.0791 	-1.41906 	-1.0763e-20
0.0868368 	11.1222 	-1.42161 	-9.8566e-21
0.0870871 	11.1654 	-1.42417 	-8.95023e-21
0.0873373 	11.2086 	-1.42673 	-8.04386e-21
0.0875876 	11.2517 	-1.42929 	-7.13749e-21
0.0878378 	11.2949 	-1.43184 	-6.23113e-21
0.0880881 	11.3368 	-1.43404 	-4.96331e-21
0.0883383 	11.3783 	-1.43615 	-3.62888e-21
0.0885886 	11.4192 	-1.4381 	-2.34577e-21
0.0888388 	11.4601 	-1.44005 	-1.06265e-21
0.0890891 	11.5009 	-1.44201 	2.20472e-22
0.0893393 	11.5418 	-1.44396 	1.50359e-21
0.0895896 	11.5827 	-1.44592 	2.78671e-21
0.0898398 	11.6236 	-1.44787 	4.06983e-21
0.0900901 	11.6644 	-1.44983 	5.35295e-21
0.0903403 	11.7053 	-1.45178 	6.63606e-21
0.0905906 	11.7462 	-1.45374 	7.91918e-21
0.0908408 	11.7871 	-1.45569 	9.2023e-21
0.0910911 	11.828 	-1.45765 	1.04854e-20
0.0913413 	11.8688 	-1.4596 	1.17685e-20
0.0915916 	11.9097 	-1.46155 	1.30517e-20
0.0918418 	11.9488 	-1.46345 	1.42634e-20
0.0920921 	11.9862 	-1.46531 	1.54131e-20
0.0923423 	12.0236 	-1.46716 	1.65628e-20
0.0925926 	12.0611 	-1.46901 	1.77125e-20
0.0928428 	12.0973 	-1.47062 	1.9371e-20
0.0930931 	12.1321 	-1.47192 	2.16967e-20
0.0933433 	12.1668 	-1.47322 	2.40224e-20
0.0935936 	12.2015 	-1.47452 	2.6348e-20
0.0938438 	12.2362 	-1.47582 	2.86737e-20
0.0940941 	12.271 	-1.47712 	3.09994e-20
0.0943443 	12.3057 	-1.47842 	3.33251e-20
0.0945946 	12.342 	-1.48001 	3.64866e-20
0.0948448 	12.3792 	-1.48178 	4.01488e-20
0.0950951 	12.4164 	-1.48355 	4.3811e-20
0.0953453 	12.4537 	-1.48532 	4.74731e-20
0.0955956 	12.4909 	-1.48708 	5.11353e-20
0.0958458 	12.5281 	-1.48885 	5.47975e-20
0.0960961 	12.5653 	-1.49062 	5.84597e-20
0.0963463 	12.6025 	-1.49238 	6.21219e-20
0.0965966 	12.6398 	-1.49415 	6.57841e-20
0.0968468 	12.677 	-1.49592 	6.94463e-20
0.0970971 	12.7142 	-1.49768 	7.31084e-20
0.0973473 	12.7514 	-1.49945 	7.67706e-20
0.0975976 	12.7886 	-1.50122 	8.04328e-20
0.0978478 	12.8248 	-1.50277 	8.05576e-20
0.0980981 	12.8592 	-1.50394 	7.438e-20
0.0983483 	12.8935 	-1.50512 	6.82024e-20
0.0985986 	12.9279 	-1.50629 	6.20247e-20
0.0988488 	12.9622 	-1.50746 	5.58471e-20
0.0990991 	12.9966 	-1.50863 	4.96695e-20
0.0993493 	13.0309 	-1.5098 	4.34918e-20
0.0995996 	13.0653 	-1.51097 	3.73142e-20
0.0998498 	13.0995 	-1.51215 	3.17172e-20
0.1001 	13.1311 	-1.51331 	3.49534e-20
0.10035 	13.1627 	-1.51447 	3.81896e-20
0.100601 	13.1943 	-1.51563 	4.14259e-20
0.100851 	13.226 	-1.51679 	4.46621e-20
0.101101 	13.2576 	-1.51795 	4.78983e-20
0.101351 	13.2892 	-1.51911 	5.11345e-20
0.101602 	13.3208 	-1.52027 	5.43707e-20
0.101852 	13.3524 	-1.52143 	5.76069e-20
0.102102 	13.3841 	-1.52259 	6.08432e-20
0.102352 	13.4157 	-1.52375 	6.40794e-20
0.102603 	13.4473 	-1.52491 	6.73156e-20
0.102853 	13.4789 	-1.52607 	7.05518e-20
0.103103 	13.5075 	-1.52675 	6.85372e-20
0.103353 	13.535 	-1.52725 	6.46612e-20
0.103604 	13.5625 	-1.52775 	6.07852e-20
0.103854 	13.59 	-1.52825 	5.69092e-20
0.104104 	13.6175 	-1.52875 	5.30332e-20
0.104354 	13.645 	-1.52926 	4.91571e-20
0.104605 	13.6725 	-1.52976 	4.52811e-20
0.104855 	13.7001 	-1.53026 	4.14051e-20
0.105105 	13.7276 	-1.53076 	3.75291e-20
0.105355 	13.7551 	-1.53127 	3.36531e-20
0.105606 	13.7826 	-1.53177 	2.97771e-20
0.105856 	13.8101 	-1.53227 	2.59011e-20
0.106106 	13.8376 	-1.53277 	2.20251e-20
0.106356 	13.8651 	-1.53327 	1.81491e-20
0.106607 	13.8926 	-1.53378 	1.42731e-20
0.106857 	13.9201 	-1.53428 	1.03971e-20
0.107107 	13.9476 	-1.53478 	6.52107e-21
0.107357 	13.9751 	-1.53528 	2.64507e-21
0.107608 	14.0046 	-1.53606 	-1.29565e-21
0.107858 	14.036 	-1.53713 	-5.30393e-21
0.108108 	14.0674 	-1.53821 	-9.31221e-21
0.108358 	14.0957 	-1.53879 	-8.22901e-21
0.108609 	14.1228 	-1.53917 	-5.0426e-21
0.108859 	14.1483 	-1.53958 	-4.05334e-21
0.109109 	14.1734 	-1.53999 	-3.76075e-21
0.109359 	14.1985 	-1.54041 	-3.46816e-21
0.10961 	14.2235 	-1.54083 	-3.17557e-21
0.10986 	14.2486 	-1.54125 	-2.88298e-21
0.11011 	14.2737 	-1.54167 	-2.59039e-21
0.11036 	14.2987 	-1.54209 	-2.2978e-21
0.110611 	14.3238 	-1.54251 	-2.00521e-21
0.110861 	14.3489 	-1.54293 	-1.71262e-21
0.111111 	14.3739 	-1.54335 	-1.42003e-21
0.111361 	14.399 	-1.54376 	-1.12744e-21
0.111612 	14.4241 	-1.54418 	-8.34846e-22
0.111862 	14.4491 	-1.5446 	-5.42256e-22
0.112112 	14.4742 	-1.54502 	-2.49666e-22
0.112362 	14.4993 	-1.54544 	4.29245e-23
0.112613 	14.5236 	-1.54579 	2.0808e-22
0.112863 	14.5477 	-1.54612 	3.24792e-22
0.113113 	14.5718 	-1.54646 	4.41503e-22
0.113363 	14.5959 	-1.54679 	5.58215e-22
0.113614 	14.6193 	-1.54705 	7.98323e-22
0.113864 	14.637 	-1.54677 	2.07141e-21
0.114114 	14.6548 	-1.5465 	3.3445e-21
0.114364 	14.6725 	-1.54622 	4.61759e-21
0.114615 	14.6902 	-1.54594 	5.89068e-21
0.114865 	14.708 	-1.54567 	7.16377e-21
0.115115 	14.7257 	-1.54539 	8.43686e-21
0.115365 	14.7435 	-1.54511 	9.70995e-21
0.115616 	14.7612 	-1.54483 	1.0983e-20
0.115866 	14.779 	-1.54456 	1.22561e-20
0.116116 	14.7967 	-1.54428 	1.35292e-20
0.116366 	14.8144 	-1.544 	1.48023e-20
0.116617 	14.8322 	-1.54373 	1.60754e-20
0.116867 	14.8499 	-1.54345 	1.73485e-20
0.117117 	14.8677 	-1.54317 	1.86216e-20
0.117367 	14.8854 	-1.54289 	1.98947e-20
0.117618 	14.9032 	-1.54262 	2.11677e-20
0.117868 	14.9209 	-1.54234 	2.24408e-20
0.118118 	14.9386 	-1.54206 	2.37139e-20
0.118368 	14.9556 	-1.54183 	2.62423e-20
0.118619 	14.9721 	-1.54164 	2.96208e-20
0.118869 	14.9886 	-1.54145 	3.29994e-20
0.119119 	15.0037 	-1.54117 	3.49637e-20
0.119369 	15.0143 	-1.54063 	3.22316e-20
0.11962 	15.0249 	-1.5401 	2.94995e-20
0.11987 	15.0355 	-1.53956 	2.67673e-20
0.12012 	15.0469 	-1.53906 	2.42739e-20
0.12037 	15.0632 	-1.53883 	2.34252e-20
0.120621 	15.0795 	-1.5386 	2.25766e-20
0.120871 	15.0959 	-1.53836 	2.17279e-20
0.121121 	15.1122 	-1.53813 	2.08792e-20
0.121371 	15.1285 	-1.5379 	2.00306e-20
0.121622 	15.1448 	-1.53767 	1.91819e-20
0.121872 	15.1612 	-1.53743 	1.83332e-20
0.122122 	15.1775 	-1.5372 	1.74846e-20
0.122372 	15.1938 	-1.53697 	1.66359e-20
0.122623 	15.2102 	-1.53674 	1.57872e-20
0.122873 	15.2265 	-1.5365 	1.49386e-20
0.123123 	15.2428 	-1.53627 	1.40899e-20
0.123373 	15.2592 	-1.53604 	1.32412e-20
0.123624 	15.2755 	-1.53581 	1.23926e-20
0.123874 	15.2918 	-1.53557 	1.15439e-20
0.124124 	15.3082 	-1.53534 	1.06952e-20
0.124374 	15.3245 	-1.53511 	9.84655e-21
0.124625 	15.3408 	-1.53488 	8.99788e-21
0.124875 	15.3517 	-1.53433 	4.29278e-21
0.125125 	15.3619 	-1.53374 	-8.76436e-22
0.125375 	15.3721 	-1.53315 	-6.04566e-21
0.125626 	15.3823 	-1.53256 	-1.12149e-20
0.125876 	15.3925 	-1.53197 	-1.63841e-20
0.126126 	15.4027 	-1.53138 	-2.15533e-20
0.126376 	15.4129 	-1.53079 	-2.67225e-20
0.126627 	15.4231 	-1.53021 	-3.18918e-20
0.126877 	15.4333 	-1.52962 	-3.7061e-20
0.127127 	15.4436 	-1.52903 	-4.22302e-20
0.127377 	15.4538 	-1.52844 	-4.73994e-20
0.127628 	15.464 	-1.52785 	-5.25686e-20
0.127878 	15.4742 	-1.52726 	-5.77379e-20
0.128128 	15.4844 	-1.52667 	-6.29071e-20
0.128378 	15.4946 	-1.52608 	-6.80763e-20
0.128629 	15.5045 	-1.52553 	-7.46233e-20
0.128879 	15.514 	-1.52504 	-8.32075e-20
0.129129 	15.5234 	-1.52455 	-9.17917e-20
0.129379 	15.5329 	-1.52406 	-1.00376e-19
0.12963 	15.5424 	-1.52357 	-1.0896e-19
0.12988 	15.5518 	-1.52308 	-1.17544e-19
0.13013 	15.5613 	-1.52259 	-1.26128e-19
0.13038 	15.5698 	-1.52204 	-1.3075e-19
0.130631 	15.5762 	-1.52139 	-1.27227e-19
0.130881 	15.5826 	-1.52074 	-1.23703e-19
0.131131 	15.5891 	-1.52008 	-1.20179e-19
0.131381 	15.5955 	-1.51943 	-1.16655e-19
0.131632 	15.6019 	-1.51877 	-1.13132e-19
0.131882 	15.6084 	-1.51812 	-1.09608e-19
0.132132 	15.6148 	-1.51746 	-1.06084e-19
0.132382 	15.6232 	-1.5169 	-1.06497e-19
0.132633 	15.6328 	-1.51638 	-1.09356e-19
0.132883 	15.6424 	-1.51587 	-1.12215e-19
0.133133 	15.652 	-1.51536 	-1.15073e-19
0.133383 	15.6616 	-1.51485 	-1.17932e-19
0.133634 	15.6712 	-1.51434 	-1.20791e-19
0.133884 	15.6808 	-1.51383 	-1.23649e-19
0.134134 	15.6904 	-1.51332 	-1.26508e-19
0.134384 	15.7 	-1.51281 	-1.29367e-19
0.134635 	15.7096 	-1.5123 	-1.32225e-19
0.134885 	15.7192 	-1.51179 	-1.35084e-19
0.135135 	15.7288 	-1.51128 	-1.37943e-19
0.135385 	15.7384 	-1.51077 	-1.40801e-19
0.135636 	15.748 	-1.51026 	-1.4366e-19
0.135886 	15.7576 	-1.50975 	-1.46519e-19
0.136136 	15.7659 	-1.50918 	-1.45607e-19
0.136386 	15.7723 	-1.50851 	-1.39447e-19
0.136637 	15.7788 	-1.50784 	-1.33286e-19
0.136887 	15.7852 	-1.50717 	-1.27125e-19
0.137137 	15.7917 	-1.5065 	-1.20965e-19
0.137387 	15.7981 	-1.50584 	-1.14804e-19
0.137638 	15.8046 	-1.50517 	-1.08643e-19
0.137888 	15.811 	-1.5045 	-1.02483e-19
0.138138 	15.8175 	-1.50383 	-9.63222e-20
0.138388 	15.8239 	-1.50316 	-9.01615e-20
0.138639 	15.8304 	-1.5025 	-8.40009e-20
0.138889 	15.8368 	-1.50183 	-7.78402e-20
0.139139 	15.8432 	-1.50116 	-7.16796e-20
0.139389 	15.8497 	-1.50049 	-6.55189e-20
0.13964 	15.8561 	-1.49983 	-5.93583e-20
0.13989 	15.8621 	-1.49926 	-5.56192e-20
0.14014 	15.8681 	-1.49869 	-5.19262e-20
0.14039 	15.8741 	-1.49812 	-4.82333e-20
0.140641 	15.88 	-1.49755 	-4.45403e-20
0.140891 	15.886 	-1.49699 	-4.08474e-20
0.141141 	15.892 	-1.49642 	-3.71544e-20
0.141391 	15.898 	-1.49585 	-3.34615e-20
0.141642 	15.9039 	-1.49528 	-2.97685e-20
0.141892 	15.9093 	-1.49463 	-2.79075e-20
0.142142 	15.9133 	-1.49379 	-2.97762e-20
0.142392 	15.9173 	-1.49295 	-3.1645e-20
0.142643 	15.9213 	-1.4921 	-3.35137e-20
0.142893 	15.9253 	-1.49126 	-3.53825e-20
0.143143 	15.9293 	-1.49042 	-3.72512e-20
0.143393 	15.9334 	-1.48958 	-3.91199e-20
0.143644 	15.9374 	-1.48874 	-4.09887e-20
0.143894 	15.9414 	-1.4879 	-4.28574e-20
0.144144 	15.9474 	-1.48731 	-4.83806e-20
0.144394 	15.9535 	-1.48675 	-5.42995e-20
0.144645 	15.9597 	-1.48618 	-6.02183e-20
0.144895 	15.9659 	-1.48562 	-6.61372e-20
0.145145 	15.9721 	-1.48506 	-7.20561e-20
0.145395 	15.9783 	-1.4845 	-7.7975e-20
0.145646 	15.9845 	-1.48393 	-8.38939e-20
0.145896 	15.9907 	-1.48337 	-8.98127e-20
0.146146 	15.9969 	-1.48281 	-9.57316e-20
0.146396 	16.0031 	-1.48224 	-1.0165e-19
0.146647 	16.0093 	-1.48168 	-1.07569e-19
0.146897 	16.0155 	-1.48112 	-1.13488e-19
0.147147 	16.0217 	-1.48055 	-1.19407e-19
0.147397 	16.0279 	-1.47999 	-1.25326e-19
0.147648 	16.0341 	-1.47943 	-1.31245e-19
0.147898 	16.0383 	-1.47859 	-1.24154e-19
0.148148 	16.0425 	-1.47775 	-1.16625e-19
0.148398 	16.0467 	-1.47691 	-1.09096e-19
0.148649 	16.0509 	-1.47606 	-1.01567e-19
0.148899 	16.055 	-1.47522 	-9.40381e-20
0.149149 	16.0592 	-1.47438 	-8.6509e-20
0.149399 	16.0634 	-1.47353 	-7.898e-20
0.14965 	16.0676 	-1.47269 	-7.14509e-20
0.1499 	16.0718 	-1.47184 	-6.39219e-20
0.15015 	16.076 	-1.471 	-5.63929e-20
0.1504 	16.0802 	-1.47016 	-4.88638e-20
0.150651 	16.0843 	-1.46931 	-4.13348e-20
0.150901 	16.0885 	-1.46847 	-3.38057e-20
0.151151 	16.0927 	-1.46763 	-2.62767e-20
0.151401 	16.0969 	-1.46678 	-1.87477e-20
0.151652 	16.1011 	-1.46595 	-1.19452e-20
0.151902 	16.1049 	-1.46522 	-1.01193e-20
0.152152 	16.1088 	-1.46449 	-8.29335e-21
0.152402 	16.1127 	-1.46376 	-6.46745e-21
0.152653 	16.1166 	-1.46303 	-4.64155e-21
0.152903 	16.1205 	-1.4623 	-2.81565e-21
0.153153 	16.1244 	-1.46157 	-9.89743e-22
0.153403 	16.1283 	-1.46084 	8.36159e-22
0.153654 	16.1312 	-1.45998 	-1.593e-14
0.153904 	16.133 	-1.45899 	-4.78437e-14
0.154154 	16.1349 	-1.458 	-7.97573e-14
0.154404 	16.1368 	-1.45701 	-1.11671e-13
0.154655 	16.1386 	-1.45602 	-1.43585e-13
0.154905 	16.1405 	-1.45503 	-1.75498e-13
0.155155 	16.1423 	-1.45404 	-2.07412e-13
0.155405 	16.1462 	-1.45328 	-2.09966e-13
0.155656 	16.1504 	-1.45257 	-2.07179e-13
0.155906 	16.1547 	-1.45186 	-2.04392e-13
0.156156 	16.1589 	-1.45115 	-2.01604e-13
0.156406 	16.1631 	-1.45044 	-1.98817e-13
0.156657 	16.1674 	-1.44973 	-1.9603e-13
0.156907 	16.1716 	-1.44902 	-1.93242e-13
0.157157 	16.1758 	-1.44831 	-1.90455e-13
0.157407 	16.1801 	-1.4476 	-1.87668e-13
0.157658 	16.1843 	-1.44689 	-1.8488e-13
0.157908 	16.1885 	-1.44618 	-1.82093e-13
0.158158 	16.1927 	-1.44547 	-1.79306e-13
0.158408 	16.197 	-1.44476 	-1.76518e-13
0.158659 	16.2012 	-1.44405 	-1.73731e-13
0.158909 	16.2054 	-1.44334 	-1.70944e-13
0.159159 	16.2097 	-1.44263 	-1.68157e-13
0.159409 	16.2139 	-1.44192 	-1.65369e-13
0.15966 	16.2165 	-1.441 	-1.62694e-13
0.15991 	16.2187 	-1.44001 	-1.60055e-13
0.16016 	16.2208 	-1.43903 	-1.57416e-13
0.16041 	16.2229 	-1.43804 	-1.54778e-13
0.160661 	16.225 	-1.43706 	-1.52139e-13
0.160911 	16.2271 	-1.43608 	-1.495e-13
0.161161 	16.2292 	-1.43509 	-1.46862e-13
0.161411 	16.2313 	-1.43411 	-1.44223e-13
0.161662 	16.2335 	-1.43312 	-1.41584e-13
0.161912 	16.2356 	-1.43214 	-1.38946e-13
0.162162 	16.2377 	-1.43115 	-1.36307e-13
0.162412 	16.2398 	-1.43017 	-1.33668e-13
0.162663 	16.2419 	-1.42918 	-1.3103e-13
0.162913 	16.244 	-1.4282 	-1.28391e-13
0.163163 	16.2462 	-1.42721 	-1.25752e-13
0.163413 	16.2483 	-1.42623 	-1.23114e-13
0.163664 	16.2504 	-1.42525 	-1.20475e-13
0.163914 	16.2525 	-1.42426 	-1.17836e-13
0.164164 	16.2546 	-1.42328 	-1.15198e-13
0.164414 	16.2567 	-1.42229 	-1.12559e-13
0.164665 	16.2588 	-1.42137 	-9.39165e-14
0.164915 	16.2608 	-1.42051 	-6.25181e-14
0.165165 	16.2628 	-1.41965 	-3.11198e-14
0.165415 	16.2647 	-1.41879 	2.8261e-21
0.165666 	16.2652 	-1.41774 	5.41985e-21
0.165916 	16.2657 	-1.4167 	8.0136e-21
0.166166 	16.2666 	-1.4157 	9.895e-21
0.166416 	16.2689 	-1.41485 	9.39848e-21
0.166667 	16.2712 	-1.41401 	8.90197e-21
0.166917 	16.2735 	-1.41316 	8.40545e-21
0.167167 	16.2759 	-1.41232 	7.90893e-21
0.167417 	16.2782 	-1.41147 	7.41242e-21
0.167668 	16.2805 	-1.41063 	6.9159e-21
0.167918 	16.2829 	-1.40978 	6.41939e-21
0.168168 	16.2852 	-1.40894 	5.92287e-21
0.168418 	16.2875 	-1.40809 	5.42636e-21
0.168669 	16.2898 	-1.40725 	4.92984e-21
0.168919 	16.2922 	-1.4064 	4.43333e-21
0.169169 	16.2945 	-1.40556 	3.93681e-21
0.169419 	16.2968 	-1.40471 	3.4403e-21
0.16967 	16.2992 	-1.40387 	2.94378e-21
0.16992 	16.3015 	-1.40302 	2.44727e-21
0.17017 	16.3038 	-1.40218 	1.95075e-21
0.17042 	16.3061 	-1.40133 	1.45424e-21
0.170671 	16.3085 	-1.40049 	9.5772e-22
0.170921 	16.3108 	-1.39964 	4.61205e-22
0.171171 	16.313 	-1.39879 	2.1369e-22
0.171421 	16.3151 	-1.39792 	3.52871e-22
0.171672 	16.3158 	-1.39687 	5.76623e-22
0.171922 	16.3162 	-1.39581 	8.12047e-22
0.172172 	16.3167 	-1.39474 	1.04747e-21
0.172422 	16.3172 	-1.39368 	1.2829e-21
0.172673 	16.3176 	-1.39261 	1.51832e-21
0.172923 	16.3181 	-1.39155 	1.75374e-21
0.173173 	16.3186 	-1.39048 	1.98917e-21
0.173423 	16.319 	-1.38942 	2.22459e-21
0.173674 	16.3195 	-1.38835 	2.46002e-21
0.173924 	16.32 	-1.38729 	2.69544e-21
0.174174 	16.3204 	-1.38622 	2.93087e-21
0.174424 	16.3209 	-1.38516 	3.16629e-21
0.174675 	16.3214 	-1.38409 	3.40171e-21
0.174925 	16.3218 	-1.38302 	3.63714e-21
0.175175 	16.3223 	-1.38196 	3.87256e-21
0.175425 	16.3228 	-1.38089 	4.10799e-21
0.175676 	16.3232 	-1.37983 	4.34341e-21
0.175926 	16.3237 	-1.37876 	4.57884e-21
0.176176 	16.3242 	-1.3777 	4.81426e-21
0.176426 	16.3246 	-1.37663 	5.04968e-21
0.176677 	16.3251 	-1.37557 	5.28511e-21
0.176927 	16.3271 	-1.37468 	3.90169e-21
0.177177 	16.3296 	-1.37383 	2.10052e-21
0.177427 	16.3321 	-1.37298 	2.99344e-22