0 	0 	0 	0
9.500475e-07 	0.44563317 	3.3054572e-08 	0
1.900095e-06 	0.88948151 	1.226774e-07 	0
2.8501425e-06 	1.3333278 	2.7161069e-07 	0
3.80019e-06 	1.7771745 	4.8294104e-07 	0
4.7502375e-06 	2.2210165 	7.5215967e-07 	0
5.700285e-06 	2.6648528 	1.080634e-06 	0
6.6503325e-06 	3.1086692 	1.4725364e-06 	0
7.60038e-06 	3.5524547 	1.9212078e-06 	0
8.5504275e-06 	3.9961865 	2.4274845e-06 	0
9.500475e-06 	4.4398205 	2.9973762e-06 	0
1.0450523e-05 	4.8832978 	3.6281604e-06 	0
1.140057e-05 	5.3265512 	4.3175993e-06 	0
1.2350618e-05 	5.7694816 	5.0659945e-06 	0
1.3300665e-05 	6.2119606 	5.8734874e-06 	0
1.4250713e-05 	6.6538257 	6.7400345e-06 	0
1.520076e-05 	7.094878 	7.6653806e-06 	0
1.6150808e-05 	7.5348813 	8.6490331e-06 	0
1.7100855e-05 	7.9735641 	9.6902407e-06 	0
1.8050903e-05 	8.4106256 	1.0787978e-05 	0
1.900095e-05 	8.845746 	1.194094e-05 	0
1.9950998e-05 	9.2786012 	1.3147556e-05 	0
2.0901045e-05 	9.7084198 	1.4413145e-05 	0
2.1851093e-05 	10.134706 	1.5735066e-05 	0
2.280114e-05 	10.557316 	1.7106463e-05 	0
2.3751188e-05 	10.975948 	1.8524786e-05 	0
2.4701235e-05 	11.390389 	1.9987402e-05 	0
2.5651283e-05 	11.799033 	2.1503109e-05 	0
2.660133e-05 	12.201537 	2.3066994e-05 	0
2.7551378e-05 	12.598748 	2.4668047e-05 	0
2.8501425e-05 	12.990776 	2.6303544e-05 	0
2.9451473e-05 	13.373701 	2.7991862e-05 	0
3.040152e-05 	13.750402 	2.971215e-05 	0
3.1351568e-05 	14.121657 	3.1459475e-05 	0
3.2301615e-05 	14.483152 	3.3250718e-05 	0
3.3251663e-05 	14.837689 	3.5070306e-05 	0
3.420171e-05 	15.187163 	3.6910254e-05 	0
3.5151758e-05 	15.524802 	3.8793258e-05 	0
3.6101805e-05 	15.857271 	4.0693752e-05 	0
3.7051853e-05 	16.182424 	4.2618458e-05 	0
3.80019e-05 	16.498012 	4.4572883e-05 	0
3.8951948e-05 	16.809879 	4.6538661e-05 	0
3.9901995e-05 	17.109653 	4.8538975e-05 	0
4.0852043e-05 	17.405715 	5.0549589e-05 	0
4.180209e-05 	17.69285 	5.2584146e-05 	0
4.2752138e-05 	17.973897 	5.463465e-05 	0
4.3702185e-05 	18.248568 	5.6701341e-05 	0
4.4652233e-05 	18.515532 	5.8787404e-05 	0
4.560228e-05 	18.778001 	6.0884357e-05 	0
4.6552328e-05 	19.031903 	6.3002235e-05 	0
4.7502375e-05 	19.2825 	6.5127813e-05 	0
4.8452423e-05 	19.524397 	6.7274002e-05 	0
4.940247e-05 	19.763503 	6.942643e-05 	0
5.0352518e-05 	19.994502 	7.1598004e-05 	0
5.1302565e-05 	20.2226 	7.3776043e-05 	0
5.2252613e-05 	20.44387 	7.5971134e-05 	0
5.320266e-05 	20.661594 	7.8174643e-05 	0
5.4152708e-05 	20.874248 	8.0391785e-05 	0
5.5102755e-05 	21.082225 	8.2620919e-05 	0
5.6052803e-05 	21.287217 	8.4858336e-05 	0
5.700285e-05 	21.485899 	8.7112236e-05 	0
5.7952898e-05 	21.68405 	8.9367858e-05 	0
5.8902945e-05 	21.873783 	9.1645064e-05 	0
5.9852993e-05 	22.063516 	9.3922271e-05 	0
6.080304e-05 	22.246934 	9.6216145e-05 	0
6.1753088e-05 	22.428052 	9.8515613e-05 	0
6.2703135e-05 	22.606353 	0.00010082269 	0
6.3653183e-05 	22.779191 	0.00010314348 	0
6.460323e-05 	22.952029 	0.00010546426 	0
6.5553278e-05 	23.117886 	0.00010780336 	0
6.6503325e-05 	23.282782 	0.00011014455 	0
6.7453373e-05 	23.445035 	0.00011249294 	0
6.840342e-05 	23.602323 	0.00011485372 	0
6.9353468e-05 	23.759612 	0.00011721449 	0
7.0303515e-05 	23.911491 	0.00011958967 	0
7.1253563e-05 	24.061505 	0.00012196927 	0
7.220361e-05 	24.211066 	0.00012435047 	0
7.3153658e-05 	24.35413 	0.00012674821 	0
7.4103705e-05 	24.497195 	0.00012914594 	0
7.5053753e-05 	24.638203 	0.00013154954 	0
7.60038e-05 	24.774638 	0.00013396479 	0
7.6953848e-05 	24.911072 	0.00013638004 	0
7.7903895e-05 	25.044496 	0.0001388038 	0
7.8853943e-05 	25.17461 	0.00014123599 	0
7.980399e-05 	25.304725 	0.00014366818 	0
8.0754038e-05 	25.431457 	0.00014611006 	0
8.1704085e-05 	25.555553 	0.00014855867 	0
8.2654133e-05 	25.679648 	0.00015100728 	0
8.360418e-05 	25.800511 	0.00015346537 	0
8.4554228e-05 	25.918877 	0.00015592994 	0
8.5504275e-05 	26.037242 	0.00015839451 	0
8.6454323e-05 	26.152988 	0.00016086703 	0
8.740437e-05 	26.2659 	0.00016334712 	0
8.8354418e-05 	26.378813 	0.00016582721 	0
8.9304465e-05 	26.490125 	0.00016831249 	0
9.0254513e-05 	26.597851 	0.00017080772 	0
9.120456e-05 	26.705578 	0.00017330294 	0
9.2154608e-05 	26.813075 	0.00017579939 	0
9.3104655e-05 	26.915869 	0.0001783094 	0
9.4054703e-05 	27.018664 	0.00018081941 	0
9.500475e-05 	27.121458 	0.00018332942 	0
9.5954798e-05 	27.221013 	0.00018584999 	0
9.6904845e-05 	27.319119 	0.0001883745 	0
9.7854893e-05 	27.417225 	0.000190899 	0
9.880494e-05 	27.514265 	0.00019342748 	0
9.9754988e-05 	27.60792 	0.0001959662 	0
0.00010070504 	27.701574 	0.00019850491 	0
0.00010165508 	27.795229 	0.00020104363 	0
0.00010260513 	27.885978 	0.00020359243 	0
0.00010355518 	27.975419 	0.00020614492 	0
0.00010450523 	28.064859 	0.00020869741 	0
0.00010545527 	28.154149 	0.00021125102 	0
0.00010640532 	28.239636 	0.00021381735 	0
0.00010735537 	28.325122 	0.00021638369 	0
0.00010830542 	28.410608 	0.00021895002 	0
0.00010925546 	28.495055 	0.00022152109 	0
0.00011020551 	28.57686 	0.00022410203 	0
0.00011115556 	28.658665 	0.00022668297 	0
0.00011210561 	28.740469 	0.00022926391 	0
0.00011305565 	28.820832 	0.00023185179 	0
0.0001140057 	28.899193 	0.00023444775 	0
0.00011495575 	28.977553 	0.00023704372 	0
0.0001159058 	29.055914 	0.00023963968 	0
0.00011685584 	29.132824 	0.0002422429 	0
0.00011780589 	29.207926 	0.00024485366 	0
0.00011875594 	29.283027 	0.00024746442 	0
0.00011970599 	29.358129 	0.00025007518 	0
0.00012065603 	29.432121 	0.00025269184 	0
0.00012160608 	29.504125 	0.00025531717 	0
0.00012255613 	29.576128 	0.00025794249 	0
0.00012350618 	29.648131 	0.00026056781 	0
0.00012445622 	29.719681 	0.00026319609 	0
0.00012540627 	29.788737 	0.00026583596 	0
0.00012635632 	29.857794 	0.00026847582 	0
0.00012730637 	29.926851 	0.00027111569 	0
0.00012825641 	29.995907 	0.00027375555 	0
0.00012920646 	30.062637 	0.00027640818 	0
0.00013015651 	30.128891 	0.00027906252 	0
0.00013110656 	30.195144 	0.00028171687 	0
0.0001320566 	30.261397 	0.00028437121 	0
0.00013300665 	30.326631 	0.00028703183 	0
0.0001339567 	30.390216 	0.00028970058 	0
0.00013490675 	30.453801 	0.00029236932 	0
0.00013585679 	30.517386 	0.00029503807 	0
0.00013680684 	30.580971 	0.00029770682 	0
0.00013775689 	30.642504 	0.00030038794 	0
0.00013870694 	30.703549 	0.00030307102 	0
0.00013965698 	30.764593 	0.0003057541 	0
0.00014060703 	30.825638 	0.00030843718 	0
0.00014155708 	30.886436 	0.00031112254 	0
0.00014250713 	30.94506 	0.00031381988 	0
0.00014345717 	31.003684 	0.00031651723 	0
0.00014440722 	31.062309 	0.00031921458 	0
0.00014535727 	31.120933 	0.00032191193 	0
0.00014630732 	31.178953 	0.00032461385 	0
0.00014725736 	31.235271 	0.00032732542 	0
0.00014820741 	31.29159 	0.00033003698 	0
0.00014915746 	31.347908 	0.00033274854 	0
0.00015010751 	31.404226 	0.0003354601 	0
0.00015105755 	31.45992 	0.00033817656 	0
0.0001520076 	31.51404 	0.00034090228 	0
0.00015295765 	31.568159 	0.00034362801 	0
0.0001539077 	31.622278 	0.00034635373 	0
0.00015485774 	31.676398 	0.00034907945 	0
0.00015580779 	31.730175 	0.00035180839 	0
0.00015675784 	31.782198 	0.00035454823 	0
0.00015770789 	31.83422 	0.00035728807 	0
0.00015865793 	31.886242 	0.00036002791 	0
0.00015960798 	31.938265 	0.00036276775 	0
0.00016055803 	31.990287 	0.00036550759 	0
0.00016150808 	32.040517 	0.00036826098 	0
0.00016245812 	32.090538 	0.00037101489 	0
0.00016340817 	32.14056 	0.00037376881 	0
0.00016435822 	32.190581 	0.00037652272 	0
0.00016530827 	32.240603 	0.00037927663 	0
0.00016625831 	32.28971 	0.00038203824 	0
0.00016720836 	32.337822 	0.0003848062 	0
0.00016815841 	32.385934 	0.00038757415 	0
0.00016910846 	32.434045 	0.0003903421 	0
0.0001700585 	32.482157 	0.00039311005 	0
0.00017100855 	32.530269 	0.00039587801 	0
0.0001719586 	32.576728 	0.00039865966 	0
0.00017290865 	32.623016 	0.00040144162 	0
0.00017385869 	32.669304 	0.00040422358 	0
0.00017480874 	32.715592 	0.00040700554 	0
0.00017575879 	32.76188 	0.0004097875 	0
0.00017670884 	32.807863 	0.00041257295 	0
0.00017765888 	32.852409 	0.00041536889 	0
0.00017860893 	32.896955 	0.00041816483 	0
0.00017955898 	32.941501 	0.00042096077 	0
0.00018050903 	32.986047 	0.00042375671 	0
0.00018145907 	33.030593 	0.00042655265 	0
0.00018240912 	33.074673 	0.00042935357 	0
0.00018335917 	33.117554 	0.00043216347 	0
0.00018430922 	33.160435 	0.00043497336 	0
0.00018525926 	33.203316 	0.00043778326 	0
0.00018620931 	33.246197 	0.00044059315 	0
0.00018715936 	33.289078 	0.00044340305 	0
0.00018810941 	33.331615 	0.00044621707 	0
0.00018905945 	33.372904 	0.00044904091 	0
0.0001900095 	33.414194 	0.00045186474 	0
0.00019095955 	33.455483 	0.00045468857 	0
0.0001919096 	33.496772 	0.0004575124 	0
0.00019285964 	33.538061 	0.00046033624 	0
0.00019380969 	33.579349 	0.00046316082 	0
0.00019475974 	33.61915 	0.00046599869 	0
0.00019570979 	33.658917 	0.00046883644 	0
0.00019665983 	33.698684 	0.0004716742 	0
0.00019760988 	33.738451 	0.00047451195 	0
0.00019855993 	33.778218 	0.00047734971 	0
0.00019950998 	33.817985 	0.00048018746 	0
0.00020046002 	33.856931 	0.00048303426 	0
0.00020141007 	33.895242 	0.00048588592 	0
0.00020236012 	33.933552 	0.00048873759 	0
0.00020331017 	33.971863 	0.00049158925 	0
0.00020426021 	34.010174 	0.00049444092 	0
0.00020521026 	34.048484 	0.00049729258 	0
0.00020616031 	34.086795 	0.00050014425 	0
0.00020711036 	34.12376 	0.00050301057 	0
0.0002080604 	34.160677 	0.00050587614 	0
0.00020901045 	34.197594 	0.00050874171 	0
0.0002099605 	34.23451 	0.00051160727 	0
0.00021091055 	34.271427 	0.00051447284 	0
0.00021186059 	34.308344 	0.00051733841 	0
0.00021281064 	34.345023 	0.00052020773 	0
0.00021376069 	34.380605 	0.0005230872 	0
0.00021471074 	34.416187 	0.00052596667 	0
0.00021566078 	34.451769 	0.00052884613 	0
0.00021661083 	34.487351 	0.0005317256 	0
0.00021756088 	34.522933 	0.00053460507 	0
0.00021851093 	34.558516 	0.00053748454 	0
0.00021946097 	34.593846 	0.00054036806 	0
0.00022041102 	34.62815 	0.00054326143 	0
0.00022136107 	34.662454 	0.00054615479 	0
0.00022231112 	34.696757 	0.00054904816 	0
0.00022326116 	34.731061 	0.00055194152 	0
0.00022421121 	34.765365 	0.00055483489 	0
0.00022516126 	34.799669 	0.00055772826 	0
0.00022611131 	34.833951 	0.00056062399 	0
0.00022706135 	34.867032 	0.00056353048 	0
0.0002280114 	34.900111 	0.00056643775 	0
0.00022896145 	34.93319 	0.00056934501 	0
0.0002299115 	34.966269 	0.00057225228 	0
0.00023086154 	34.999348 	0.00057515955 	0
0.00023181159 	35.032427 	0.00057806681 	0
0.00023276164 	35.065506 	0.00058097408 	0
0.00023371169 	35.097846 	0.00058389153 	0
0.00023466173 	35.129751 	0.0005868127 	0
0.00023561178 	35.161656 	0.00058973388 	0
0.00023656183 	35.193561 	0.00059265505 	0
0.00023751188 	35.225467 	0.00059557623 	0
0.00023846192 	35.257372 	0.00059849741 	0
0.00023941197 	35.289277 	0.00060141858 	0
0.00024036202 	35.321145 	0.00060434184 	0
0.00024131207 	35.351925 	0.00060727678 	0
0.00024226211 	35.382705 	0.00061021187 	0
0.00024321216 	35.413485 	0.00061314696 	0
0.00024416221 	35.444264 	0.00061608206 	0
0.00024511226 	35.475044 	0.00061901715 	0
0.0002460623 	35.505824 	0.00062195224 	0
0.00024701235 	35.536604 	0.00062488734 	0
0.0002479624 	35.567147 	0.000627827 	0
0.00024891245 	35.596847 	0.00063077603 	0
0.00024986249 	35.626548 	0.00063372505 	0
0.00025081254 	35.656249 	0.00063667408 	0
0.00025176259 	35.685949 	0.0006396231 	0
0.00025271264 	35.71565 	0.00064257213 	0
0.00025366268 	35.74535 	0.00064552115 	0
0.00025461273 	35.775051 	0.00064847018 	0
0.00025556278 	35.804562 	0.00065142331 	0
0.00025651283 	35.833228 	0.00065438628 	0
0.00025746287 	35.861893 	0.00065734925 	0
0.00025841292 	35.890558 	0.00066031223 	0
0.00025936297 	35.919223 	0.0006632752 	0
0.00026031302 	35.947888 	0.00066623818 	0
0.00026126306 	35.976553 	0.00066920115 	0
0.00026221311 	36.005218 	0.00067216412 	0
0.00026316316 	36.033883 	0.0006751271 	0
0.00026411321 	36.061638 	0.00067810447 	0
0.00026506325 	36.089309 	0.00068108142 	0
0.0002660133 	36.116981 	0.00068405836 	0
0.00026696335 	36.144652 	0.0006870353 	0
0.0002679134 	36.172323 	0.00069001225 	0
0.00026886344 	36.199995 	0.00069298919 	0
0.00026981349 	36.227666 	0.00069596613 	0
0.00027076354 	36.255337 	0.00069894308 	0
0.00027171359 	36.282615 	0.00070192746 	0
0.00027266363 	36.309333 	0.00070491839 	0
0.00027361368 	36.33605 	0.00070790933 	0
0.00027456373 	36.362767 	0.00071090027 	0
0.00027551378 	36.389485 	0.0007138912 	0
0.00027646382 	36.416202 	0.00071688214 	0
0.00027741387 	36.442919 	0.00071987308 	0
0.00027836392 	36.469637 	0.00072286402 	0
0.00027931397 	36.496354 	0.00072585495 	0
0.00028026401 	36.522462 	0.00072885695 	0
0.00028121406 	36.548263 	0.00073186191 	0
0.00028216411 	36.574064 	0.00073486687 	0
0.00028311416 	36.599865 	0.00073787183 	0
0.0002840642 	36.625667 	0.00074087679 	0
0.00028501425 	36.651468 	0.00074388175 	0
0.0002859643 	36.677269 	0.0007468867 	0
0.00028691435 	36.70307 	0.00074989166 	0
0.00028786439 	36.728871 	0.00075289662 	0
0.00028881444 	36.754084 	0.00075591278 	0
0.00028976449 	36.779005 	0.00075893179 	0
0.00029071454 	36.803926 	0.0007619508 	0
0.00029166458 	36.828848 	0.00076496981 	0
0.00029261463 	36.853769 	0.00076798882 	0
0.00029356468 	36.87869 	0.00077100783 	0
0.00029451473 	36.903611 	0.00077402684 	0
0.00029546477 	36.928533 	0.00077704585 	0
0.00029641482 	36.953454 	0.00078006486 	0
0.00029736487 	36.978024 	0.00078309159 	0
0.00029831492 	37.002099 	0.00078612469 	0
0.00029926496 	37.026175 	0.00078915778 	0
0.00030021501 	37.050251 	0.00079219088 	0
0.00030116506 	37.074327 	0.00079522398 	0
0.00030211511 	37.098403 	0.00079825708 	0
0.00030306515 	37.122479 	0.00080129018 	0
0.0003040152 	37.146555 	0.00080432328 	0
0.00030496525 	37.170631 	0.00080735637 	0
0.0003059153 	37.194707 	0.00081038947 	0
0.00030686534 	37.218053 	0.00081343718 	0
0.00030781539 	37.241316 	0.0008164844 	0
0.00030876544 	37.264579 	0.00081953162 	0
0.00030971549 	37.287843 	0.00082257885 	0
0.00031066553 	37.311106 	0.00082562607 	0
0.00031161558 	37.33437 	0.0008286733 	0
0.00031256563 	37.357633 	0.00083172052 	0
0.00031351568 	37.380896 	0.00083476775 	0
0.00031446572 	37.40416 	0.00083781497 	0
0.00031541577 	37.427338 	0.00084086571 	0
0.00031636582 	37.44982 	0.00084392711 	0
0.00031731587 	37.472303 	0.0008469885 	0
0.00031826591 	37.494785 	0.00085004989 	0
0.00031921596 	37.517267 	0.00085311128 	0
0.00032016601 	37.539749 	0.00085617268 	0
0.00032111606 	37.562232 	0.00085923407 	0
0.0003220661 	37.584714 	0.00086229546 	0
0.00032301615 	37.607196 	0.00086535686 	0
0.0003239662 	37.629678 	0.00086841825 	0
0.00032491625 	37.652131 	0.00087148267 	0
0.00032586629 	37.673862 	0.00087455785 	0
0.00032681634 	37.695593 	0.00087763346 	0
0.00032776639 	37.717324 	0.00088070907 	0
0.00032871644 	37.739056 	0.00088378467 	0
0.00032966648 	37.760787 	0.00088686028 	0
0.00033061653 	37.782518 	0.00088993589 	0
0.00033156658 	37.804249 	0.0008930115 	0
0.00033251663 	37.82598 	0.0008960871 	0
0.00033346667 	37.847711 	0.00089916271 	0
0.00033441672 	37.869442 	0.00090223832 	0
0.00033536677 	37.890681 	0.00090532577 	0
0.00033631682 	37.911689 	0.00090841564 	0
0.00033726686 	37.932698 	0.00091150551 	0
0.00033821691 	37.953707 	0.00091459538 	0
0.00033916696 	37.974715 	0.00091768526 	0
0.00034011701 	37.995724 	0.00092077513 	0
0.00034106705 	38.016733 	0.000923865 	0
0.0003420171 	38.037741 	0.00092695487 	0
0.00034296715 	38.05875 	0.00093004474 	0
0.0003439172 	38.079759 	0.00093313461 	0
0.00034486724 	38.100746 	0.00093622809 	0
0.00034581729 	38.121061 	0.00093933127 	0
0.00034676734 	38.141374 	0.00094243546 	0
0.00034771739 	38.161688 	0.00094553965 	0
0.00034866743 	38.182001 	0.00094864384 	0
0.00034961748 	38.202315 	0.00095174803 	0
0.00035056753 	38.222628 	0.00095485222 	0
0.00035151758 	38.242942 	0.00095795641 	0
0.00035246762 	38.263255 	0.0009610606 	0
0.00035341767 	38.283569 	0.00096416479 	0
0.00035436772 	38.303883 	0.00096726898 	0
0.00035531777 	38.324148 	0.00097037646 	0
0.00035626781 	38.343793 	0.00097349502 	0
0.00035721786 	38.363438 	0.00097661358 	0
0.00035816791 	38.383082 	0.00097973215 	0
0.00035911796 	38.402727 	0.00098285071 	0
0.000360068 	38.422371 	0.00098596928 	0
0.00036101805 	38.442016 	0.00098908784 	0
0.0003619681 	38.461661 	0.00099220641 	0
0.00036291815 	38.481305 	0.00099532497 	0
0.00036386819 	38.50095 	0.00099844354 	0
0.00036481824 	38.520595 	0.0010015621 	0
0.00036576829 	38.540239 	0.0010046807 	0
0.00036671834 	38.559368 	0.0010078131 	0
0.00036766838 	38.578369 	0.0010109461 	0
0.00036861843 	38.59737 	0.0010140791 	0
0.00036956848 	38.616371 	0.0010172121 	0
0.00037051853 	38.635371 	0.0010203451 	0
0.00037146857 	38.654372 	0.0010234781 	0
0.00037241862 	38.673373 	0.0010266112 	0
0.00037336867 	38.692374 	0.0010297442 	0
0.00037431872 	38.711375 	0.0010328772 	0
0.00037526876 	38.730375 	0.0010360102 	0
0.00037621881 	38.749376 	0.0010391432 	0
0.00037716886 	38.768248 	0.0010422816 	0
0.00037811891 	38.786629 	0.0010454291 	0
0.00037906895 	38.80501 	0.0010485766 	0
0.000380019 	38.823391 	0.0010517241 	0
0.00038096905 	38.841771 	0.0010548716 	0
0.0003819191 	38.860152 	0.0010580191 	0
0.00038286914 	38.878533 	0.0010611666 	0
0.00038381919 	38.896914 	0.0010643142 	0
0.00038476924 	38.915295 	0.0010674617 	0
0.00038571929 	38.933676 	0.0010706092 	0
0.00038666933 	38.952056 	0.0010737567 	0
0.00038761938 	38.970437 	0.0010769042 	0
0.00038856943 	38.988649 	0.0010800583 	0
0.00038951948 	39.006433 	0.0010832204 	0
0.00039046952 	39.024216 	0.0010863825 	0
0.00039141957 	39.042 	0.0010895446 	0
0.00039236962 	39.059784 	0.0010927066 	0
0.00039331967 	39.077568 	0.0010958687 	0
0.00039426971 	39.095352 	0.0010990308 	0
0.00039521976 	39.113136 	0.0011021929 	0
0.00039616981 	39.13092 	0.001105355 	0
0.00039711986 	39.148703 	0.001108517 	0
0.0003980699 	39.166487 	0.0011116791 	0
0.00039901995 	39.184271 	0.0011148412 	0
0.00039997 	39.202043 	0.001118008 	0
0.00040092005 	39.219253 	0.0011211829 	0
0.00040187009 	39.236462 	0.0011243596 	0
0.00040282014 	39.253671 	0.0011275363 	0
0.00040377019 	39.270879 	0.0011307131 	0
0.00040472024 	39.288088 	0.0011338898 	0
0.00040567028 	39.305297 	0.0011370665 	0
0.00040662033 	39.322506 	0.0011402432 	0
0.00040757038 	39.339715 	0.00114342 	0
0.00040852043 	39.356924 	0.0011465967 	0
0.00040947047 	39.374132 	0.0011497734 	0
0.00041042052 	39.391341 	0.0011529502 	0
0.00041137057 	39.40855 	0.0011561269 	0
0.00041232062 	39.425535 	0.0011593122 	0
0.00041327066 	39.44219 	0.0011625037 	0
0.00041422071 	39.458845 	0.0011656951 	0
0.00041517076 	39.4755 	0.0011688866 	0
0.00041612081 	39.492154 	0.0011720781 	0
0.00041707085 	39.508809 	0.0011752695 	0
0.0004180209 	39.525464 	0.001178461 	0
0.00041897095 	39.542119 	0.0011816524 	0
0.000419921 	39.558773 	0.0011848439 	0
0.00042087104 	39.575428 	0.0011880353 	0
0.00042182109 	39.592083 	0.0011912268 	0
0.00042277114 	39.608738 	0.0011944182 	0
0.00042372119 	39.625393 	0.0011976097 	0
0.00042467123 	39.641819 	0.0012008102 	0
0.00042562128 	39.65794 	0.0012040165 	0
0.00042657133 	39.674061 	0.0012072228 	0
0.00042752138 	39.690182 	0.001210429 	0
0.00042847142 	39.706303 	0.0012136353 	0
0.00042942147 	39.722424 	0.0012168416 	0
0.00043037152 	39.738545 	0.0012200478 	0
0.00043132157 	39.754665 	0.0012232541 	0
0.00043227161 	39.770786 	0.0012264604 	0
0.00043322166 	39.786907 	0.0012296666 	0
0.00043417171 	39.803028 	0.0012328729 	0
0.00043512176 	39.819149 	0.0012360792 	0
0.0004360718 	39.83527 	0.0012392854 	0
0.00043702185 	39.851349 	0.0012424958 	0
0.0004379719 	39.866956 	0.001245717 	0
0.00043892195 	39.882562 	0.0012489381 	0
0.00043987199 	39.898168 	0.0012521593 	0
0.00044082204 	39.913774 	0.0012553805 	0
0.00044177209 	39.929381 	0.0012586016 	0
0.00044272214 	39.944987 	0.0012618228 	0
0.00044367218 	39.960593 	0.001265044 	0
0.00044462223 	39.9762 	0.0012682651 	0
0.00044557228 	39.991806 	0.0012714863 	0
0.00044652233 	40.007412 	0.0012747075 	0
0.00044747237 	40.023019 	0.0012779286 	0
0.00044842242 	40.038625 	0.0012811498 	0
0.00044937247 	40.054231 	0.001284371 	0
0.00045032252 	40.069662 	0.0012876004 	0
0.00045127256 	40.084773 	0.0012908365 	0
0.00045222261 	40.099883 	0.0012940727 	0
0.00045317266 	40.114993 	0.0012973088 	0
0.00045412271 	40.130103 	0.001300545 	0
0.00045507275 	40.145214 	0.0013037812 	0
0.0004560228 	40.160324 	0.0013070173 	0
0.00045697285 	40.175434 	0.0013102535 	0
0.0004579229 	40.190544 	0.0013134896 	0
0.00045887294 	40.205654 	0.0013167258 	0
0.00045982299 	40.220765 	0.0013199619 	0
0.00046077304 	40.235875 	0.0013231981 	0
0.00046172309 	40.250985 	0.0013264343 	0
0.00046267313 	40.266095 	0.0013296704 	0
0.00046362318 	40.281094 	0.0013329131 	0
0.00046457323 	40.295726 	0.0013361644 	0
0.00046552328 	40.310358 	0.0013394156 	0
0.00046647332 	40.32499 	0.0013426669 	0
0.00046742337 	40.339622 	0.0013459181 	0
0.00046837342 	40.354254 	0.0013491694 	0
0.00046932347 	40.368886 	0.0013524206 	0
0.00047027351 	40.383517 	0.0013556719 	0
0.00047122356 	40.398149 	0.0013589231 	0
0.00047217361 	40.412781 	0.0013621744 	0
0.00047312366 	40.427413 	0.0013654256 	0
0.0004740737 	40.442045 	0.0013686769 	0
0.00047502375 	40.456677 	0.0013719281 	0
0.0004759738 	40.471309 	0.0013751794 	0
0.00047692385 	40.485941 	0.0013784306 	0
0.00047787389 	40.500246 	0.0013816958 	0
0.00047882394 	40.514416 	0.0013849623 	0
0.00047977399 	40.528587 	0.0013882287 	0
0.00048072404 	40.542757 	0.0013914951 	0
0.00048167408 	40.556928 	0.0013947616 	0
0.00048262413 	40.571098 	0.001398028 	0
0.00048357418 	40.585269 	0.0014012945 	0
0.00048452423 	40.59944 	0.0014045609 	0
0.00048547427 	40.61361 	0.0014078274 	0
0.00048642432 	40.627781 	0.0014110938 	0
0.00048737437 	40.641951 	0.0014143602 	0
0.00048832442 	40.656122 	0.0014176267 	0
0.00048927446 	40.670292 	0.0014208931 	0
0.00049022451 	40.684463 	0.0014241596 	0
0.00049117456 	40.698634 	0.001427426 	0
0.00049212461 	40.712462 	0.0014307075 	0
0.00049307465 	40.726187 	0.0014339893 	0
0.0004940247 	40.739913 	0.001437271 	0
0.00049497475 	40.753638 	0.0014405527 	0
0.0004959248 	40.767364 	0.0014438345 	0
0.00049687484 	40.78109 	0.0014471162 	0
0.00049782489 	40.794815 	0.001450398 	0
0.00049877494 	40.808541 	0.0014536797 	0
0.00049972499 	40.822266 	0.0014569615 	0
0.00050067503 	40.835992 	0.0014602432 	0
0.00050162508 	40.849717 	0.001463525 	0
0.00050257513 	40.863443 	0.0014668067 	0
0.00050352518 	40.877168 	0.0014700885 	0
0.00050447522 	40.890894 	0.0014733702 	0
0.00050542527 	40.904619 	0.0014766519 	0
0.00050637532 	40.918172 	0.0014799433 	0
0.00050732537 	40.931468 	0.0014832405 	0
0.00050827541 	40.944764 	0.0014865376 	0
0.00050922546 	40.95806 	0.0014898348 	0
0.00051017551 	40.971357 	0.001493132 	0
0.00051112556 	40.984653 	0.0014964291 	0
0.0005120756 	40.997949 	0.0014997263 	0
0.00051302565 	41.011245 	0.0015030234 	0
0.0005139757 	41.024542 	0.0015063206 	0
0.00051492575 	41.037838 	0.0015096178 	0
0.00051587579 	41.051134 	0.0015129149 	0
0.00051682584 	41.06443 	0.0015162121 	0
0.00051777589 	41.077727 	0.0015195093 	0
0.00051872594 	41.091023 	0.0015228064 	0
0.00051967598 	41.104319 	0.0015261036 	0
0.00052062603 	41.117615 	0.0015294007 	0
0.00052157608 	41.130664 	0.0015327107 	0
0.00052252613 	41.143546 	0.0015360234 	0
0.00052347617 	41.156428 	0.0015393361 	0
0.00052442622 	41.169309 	0.0015426488 	0
0.00052537627 	41.182191 	0.0015459615 	0
0.00052632632 	41.195073 	0.0015492742 	0
0.00052727636 	41.207955 	0.0015525869 	0
0.00052822641 	41.220837 	0.0015558996 	0
0.00052917646 	41.233719 	0.0015592123 	0
0.00053012651 	41.246601 	0.001562525 	0
0.00053107655 	41.259483 	0.0015658377 	0
0.0005320266 	41.272365 	0.0015691504 	0
0.00053297665 	41.285247 	0.0015724631 	0
0.0005339267 	41.298129 	0.0015757758 	0
0.00053487674 	41.311011 	0.0015790885 	0
0.00053582679 	41.323893 	0.0015824012 	0
0.00053677684 	41.336638 	0.0015857228 	0
0.00053772689 	41.34912 	0.0015890512 	0
0.00053867693 	41.361603 	0.0015923796 	0
0.00053962698 	41.374085 	0.0015957079 	0
0.00054057703 	41.386567 	0.0015990363 	0
0.00054152708 	41.399049 	0.0016023646 	0
0.00054247712 	41.411531 	0.001605693 	0
0.00054342717 	41.424013 	0.0016090214 	0
0.00054437722 	41.436495 	0.0016123497 	0
0.00054532727 	41.448978 	0.0016156781 	0
0.00054627731 	41.46146 	0.0016190064 	0
0.00054722736 	41.473942 	0.0016223348 	0
0.00054817741 	41.486424 	0.0016256632 	0
0.00054912746 	41.498906 	0.0016289915 	0
0.0005500775 	41.511388 	0.0016323199 	0
0.00055102755 	41.52387 	0.0016356482 	0
0.0005519776 	41.536353 	0.0016389766 	0
0.00055292765 	41.548595 	0.0016423185 	0
0.00055387769 	41.560691 	0.0016456626 	0
0.00055482774 	41.572788 	0.0016490068 	0
0.00055577779 	41.584884 	0.001652351 	0
0.00055672784 	41.59698 	0.0016556951 	0
0.00055767788 	41.609076 	0.0016590393 	0
0.00055862793 	41.621172 	0.0016623834 	0
0.00055957798 	41.633269 	0.0016657276 	0
0.00056052803 	41.645365 	0.0016690717 	0
0.00056147807 	41.657461 	0.0016724159 	0
0.00056242812 	41.669557 	0.00167576 	0
0.00056337817 	41.681654 	0.0016791042 	0
0.00056432822 	41.69375 	0.0016824483 	0
0.00056527826 	41.705846 	0.0016857925 	0
0.00056622831 	41.717942 	0.0016891366 	0
0.00056717836 	41.730038 	0.0016924808 	0
0.00056812841 	41.742135 	0.0016958249 	0
0.00056907845 	41.754074 	0.0016991797 	0
0.0005700285 	41.765797 	0.0017025397 	0
0.00057097855 	41.777521 	0.0017058998 	0
0.0005719286 	41.789245 	0.0017092599 	0
0.00057287864 	41.800968 	0.00171262 	0
0.00057382869 	41.812692 	0.0017159801 	0
0.00057477874 	41.824415 	0.0017193401 	0
0.00057572879 	41.836139 	0.0017227002 	0
0.00057667883 	41.847863 	0.0017260603 	0
0.00057762888 	41.859586 	0.0017294204 	0
0.00057857893 	41.87131 	0.0017327805 	0
0.00057952898 	41.883033 	0.0017361405 	0
0.00058047902 	41.894757 	0.0017395006 	0
0.00058142907 	41.906481 	0.0017428607 	0
0.00058237912 	41.918204 	0.0017462208 	0
0.00058332917 	41.929928 	0.0017495809 	0
0.00058427921 	41.941651 	0.0017529409 	0
0.00058522926 	41.953375 	0.001756301 	0
0.00058617931 	41.964836 	0.0017596769 	0
0.00058712936 	41.9762 	0.001763053 	0
0.0005880794 	41.987563 	0.0017664292 	0
0.00058902945 	41.998927 	0.0017698053 	0
0.0005899795 	42.010291 	0.0017731815 	0
0.00059092955 	42.021655 	0.0017765576 	0
0.00059187959 	42.033019 	0.0017799338 	0
0.00059282964 	42.044382 	0.0017833099 	0
0.00059377969 	42.055746 	0.0017866861 	0
0.00059472974 	42.06711 	0.0017900622 	0
0.00059567978 	42.078474 	0.0017934384 	0
0.00059662983 	42.089838 	0.0017968146 	0
0.00059757988 	42.101201 	0.0018001907 	0
0.00059852993 	42.112565 	0.0018035669 	0
0.00059947997 	42.123929 	0.001806943 	0
0.00060043002 	42.135293 	0.0018103192 	0
0.00060138007 	42.146657 	0.0018136953 	0
0.00060233012 	42.158021 	0.0018170715 	0
0.00060328016 	42.169199 	0.0018204605 	0
0.00060423021 	42.180215 	0.0018238528 	0
0.00060518026 	42.191231 	0.0018272452 	0
0.00060613031 	42.202248 	0.0018306376 	0
0.00060708035 	42.213264 	0.00183403 	0
0.0006080304 	42.224281 	0.0018374223 	0
0.00060898045 	42.235297 	0.0018408147 	0
0.0006099305 	42.246313 	0.0018442071 	0
0.00061088054 	42.25733 	0.0018475995 	0
0.00061183059 	42.268346 	0.0018509919 	0
0.00061278064 	42.279363 	0.0018543842 	0
0.00061373069 	42.290379 	0.0018577766 	0
0.00061468073 	42.301395 	0.001861169 	0
0.00061563078 	42.312412 	0.0018645614 	0
0.00061658083 	42.323428 	0.0018679537 	0
0.00061753088 	42.334444 	0.0018713461 	0
0.00061848092 	42.345461 	0.0018747385 	0
0.00061943097 	42.356477 	0.0018781309 	0
0.00062038102 	42.367494 	0.0018815232 	0
0.00062133107 	42.378235 	0.0018849333 	0
0.00062228111 	42.388916 	0.0018883421 	0
0.00062323116 	42.399597 	0.0018917508 	0
0.00062418121 	42.410278 	0.0018951596 	0
0.00062513126 	42.420958 	0.0018985684 	0
0.0006260813 	42.431639 	0.0019019771 	0
0.00062703135 	42.44232 	0.0019053859 	0
0.0006279814 	42.453001 	0.0019087946 	0
0.00062893145 	42.463681 	0.0019122034 	0
0.00062988149 	42.474362 	0.0019156122 	0
0.00063083154 	42.485043 	0.0019190209 	0
0.00063178159 	42.495724 	0.0019224297 	0
0.00063273164 	42.506405 	0.0019258384 	0
0.00063368168 	42.517085 	0.0019292472 	0
0.00063463173 	42.527766 	0.0019326559 	0
0.00063558178 	42.538447 	0.0019360647 	0
0.00063653183 	42.549128 	0.0019394735 	0
0.00063748187 	42.559808 	0.0019428822 	0
0.00063843192 	42.570489 	0.001946291 	0
0.00063938197 	42.580986 	0.0019497136 	0
0.00064033202 	42.591343 	0.0019531389 	0
0.00064128206 	42.601699 	0.0019565642 	0
0.00064223211 	42.612056 	0.0019599895 	0
0.00064318216 	42.622412 	0.0019634148 	0
0.00064413221 	42.632769 	0.0019668401 	0
0.00064508225 	42.643125 	0.0019702654 	0
0.0006460323 	42.653482 	0.0019736907 	0
0.00064698235 	42.663839 	0.001977116 	0
0.0006479324 	42.674195 	0.0019805413 	0
0.00064888244 	42.684552 	0.0019839666 	0
0.00064983249 	42.694908 	0.0019873919 	0
0.00065078254 	42.705265 	0.0019908172 	0
0.00065173259 	42.715621 	0.0019942425 	0
0.00065268263 	42.725978 	0.0019976678 	0
0.00065363268 	42.736335 	0.0020010931 	0
0.00065458273 	42.746691 	0.0020045184 	0
0.00065553278 	42.757048 	0.0020079437 	0
0.00065648282 	42.767404 	0.002011369 	0
0.00065743287 	42.777761 	0.0020147943 	0
0.00065838292 	42.787878 	0.002018237 	0
0.00065933297 	42.797921 	0.002021679 	0
0.00066028301 	42.807964 	0.0020251211 	0
0.00066123306 	42.818008 	0.0020285631 	0
0.00066218311 	42.828051 	0.0020320051 	0
0.00066313316 	42.838094 	0.0020354471 	0
0.0006640832 	42.848138 	0.0020388891 	0
0.00066503325 	42.858181 	0.0020423311 	0
0.0006659833 	42.868225 	0.0020457732 	0
0.00066693335 	42.878268 	0.0020492152 	0
0.00066788339 	42.888311 	0.0020526572 	0
0.00066883344 	42.898355 	0.0020560992 	0
0.00066978349 	42.908398 	0.0020595412 	0
0.00067073354 	42.918441 	0.0020629833 	0
0.00067168358 	42.928485 	0.0020664253 	0
0.00067263363 	42.938528 	0.0020698673 	0
0.00067358368 	42.948572 	0.0020733093 	0
0.00067453373 	42.958615 	0.0020767513 	0