# y+ ()       
# Time        	patch         	min           	max           	average       
8000          	lowerWall	3.601389e-02	3.929732e-01	2.032554e-01
8000          	upperWall	8.050601e-01	1.088567e+02	2.011690e+01
