# Field minima and maxima
# Time          	field           	min             	location(min)   	processor       	max             	location(max)   	processor       
1               	mag(U)          	0.00000000e+00	(3.17484583e-01 0.00000000e+00 5.00000000e-02)	0	6.94102580e+01	(1.45827139e-03 7.71228681e-04 5.00000000e-02)	5
2               	mag(U)          	0.00000000e+00	(3.17484583e-01 0.00000000e+00 5.00000000e-02)	0	6.94190292e+01	(1.45827139e-03 6.86953385e-04 5.00000000e-02)	5
3               	mag(U)          	0.00000000e+00	(3.17484583e-01 0.00000000e+00 5.00000000e-02)	0	6.94314471e+01	(-5.98615221e-04 1.42117577e-06 5.00000000e-02)	5
4               	mag(U)          	0.00000000e+00	(3.17484583e-01 0.00000000e+00 5.00000000e-02)	0	6.94516409e+01	(-5.98615221e-04 2.01746483e-06 5.00000000e-02)	5
5               	mag(U)          	0.00000000e+00	(3.17484583e-01 0.00000000e+00 5.00000000e-02)	0	6.94732635e+01	(-5.98615221e-04 2.01746483e-06 5.00000000e-02)	5
6               	mag(U)          	0.00000000e+00	(3.17484583e-01 0.00000000e+00 5.00000000e-02)	0	6.94970384e+01	(-5.98615221e-04 2.63079418e-06 5.00000000e-02)	5
7               	mag(U)          	0.00000000e+00	(3.17484583e-01 0.00000000e+00 5.00000000e-02)	0	6.95220793e+01	(-5.98615221e-04 2.63079418e-06 5.00000000e-02)	5
8               	mag(U)          	0.00000000e+00	(3.17484583e-01 0.00000000e+00 5.00000000e-02)	0	6.95478111e+01	(-5.98615221e-04 3.26165077e-06 5.00000000e-02)	5
9               	mag(U)          	0.00000000e+00	(3.17484583e-01 0.00000000e+00 5.00000000e-02)	0	6.95753395e+01	(-5.98615221e-04 3.26165077e-06 5.00000000e-02)	5
10              	mag(U)          	0.00000000e+00	(3.17484583e-01 0.00000000e+00 5.00000000e-02)	0	6.96031007e+01	(-5.98615221e-04 3.26165077e-06 5.00000000e-02)	5
11              	mag(U)          	0.00000000e+00	(3.17484583e-01 0.00000000e+00 5.00000000e-02)	0	6.96321506e+01	(-5.98615221e-04 3.91053549e-06 5.00000000e-02)	5
12              	mag(U)          	0.00000000e+00	(3.17484583e-01 0.00000000e+00 5.00000000e-02)	0	6.96621612e+01	(-5.98615221e-04 3.91053549e-06 5.00000000e-02)	5
13              	mag(U)          	0.00000000e+00	(3.17484583e-01 0.00000000e+00 5.00000000e-02)	0	6.96924038e+01	(-5.98615221e-04 3.91053549e-06 5.00000000e-02)	5
14              	mag(U)          	0.00000000e+00	(3.17484583e-01 0.00000000e+00 5.00000000e-02)	0	6.97239857e+01	(-5.98615221e-04 4.57796353e-06 5.00000000e-02)	5
15              	mag(U)          	0.00000000e+00	(3.17484583e-01 0.00000000e+00 5.00000000e-02)	0	6.97563317e+01	(-5.98615221e-04 4.57796353e-06 5.00000000e-02)	5
16              	mag(U)          	0.00000000e+00	(3.17484583e-01 0.00000000e+00 5.00000000e-02)	0	6.97888374e+01	(-5.98615221e-04 4.57796353e-06 5.00000000e-02)	5
17              	mag(U)          	0.00000000e+00	(3.17484583e-01 0.00000000e+00 5.00000000e-02)	0	6.98224795e+01	(-5.98615221e-04 5.26446480e-06 5.00000000e-02)	5
18              	mag(U)          	0.00000000e+00	(3.17484583e-01 0.00000000e+00 5.00000000e-02)	0	6.98569369e+01	(-5.98615221e-04 5.26446480e-06 5.00000000e-02)	5
19              	mag(U)          	0.00000000e+00	(3.17484583e-01 0.00000000e+00 5.00000000e-02)	0	6.98915709e+01	(-5.98615221e-04 5.26446480e-06 5.00000000e-02)	5
20              	mag(U)          	0.00000000e+00	(3.17484583e-01 0.00000000e+00 5.00000000e-02)	0	6.99268387e+01	(-5.98615221e-04 5.97058437e-06 5.00000000e-02)	5
21              	mag(U)          	0.00000000e+00	(3.17484583e-01 0.00000000e+00 5.00000000e-02)	0	6.99632927e+01	(-5.98615221e-04 5.97058437e-06 5.00000000e-02)	5
22              	mag(U)          	0.00000000e+00	(3.17484583e-01 0.00000000e+00 5.00000000e-02)	0	6.99998658e+01	(-5.98615221e-04 5.97058437e-06 5.00000000e-02)	5
23              	mag(U)          	0.00000000e+00	(3.17484583e-01 0.00000000e+00 5.00000000e-02)	0	7.00365428e+01	(-5.98615221e-04 5.97058437e-06 5.00000000e-02)	5
24              	mag(U)          	0.00000000e+00	(3.17484583e-01 0.00000000e+00 5.00000000e-02)	0	7.00746307e+01	(-5.98615221e-04 6.69688288e-06 5.00000000e-02)	5
25              	mag(U)          	0.00000000e+00	(3.17484583e-01 0.00000000e+00 5.00000000e-02)	0	7.01129556e+01	(-5.98615221e-04 6.69688288e-06 5.00000000e-02)	5
26              	mag(U)          	0.00000000e+00	(3.17484583e-01 0.00000000e+00 5.00000000e-02)	0	7.01513462e+01	(-5.98615221e-04 6.69688288e-06 5.00000000e-02)	5
27              	mag(U)          	0.00000000e+00	(3.17484583e-01 0.00000000e+00 5.00000000e-02)	0	7.01902152e+01	(-5.98615221e-04 7.44393698e-06 5.00000000e-02)	5
28              	mag(U)          	0.00000000e+00	(3.17484583e-01 0.00000000e+00 5.00000000e-02)	0	7.02301102e+01	(-5.98615221e-04 7.44393698e-06 5.00000000e-02)	5
29              	mag(U)          	0.00000000e+00	(3.17484583e-01 0.00000000e+00 5.00000000e-02)	0	7.02700302e+01	(-5.98615221e-04 7.44393698e-06 5.00000000e-02)	5
30              	mag(U)          	0.00000000e+00	(3.17484583e-01 0.00000000e+00 5.00000000e-02)	0	7.03099616e+01	(-5.98615221e-04 7.44393698e-06 5.00000000e-02)	5
31              	mag(U)          	0.00000000e+00	(3.17484583e-01 0.00000000e+00 5.00000000e-02)	0	7.03505722e+01	(-5.98615221e-04 8.21233980e-06 5.00000000e-02)	5
32              	mag(U)          	0.00000000e+00	(3.17484583e-01 0.00000000e+00 5.00000000e-02)	0	7.03918289e+01	(-5.98615221e-04 8.21233980e-06 5.00000000e-02)	5
33              	mag(U)          	0.00000000e+00	(3.17484583e-01 0.00000000e+00 5.00000000e-02)	0	7.04330534e+01	(-5.98615221e-04 8.21233980e-06 5.00000000e-02)	5
34              	mag(U)          	0.00000000e+00	(3.17484583e-01 0.00000000e+00 5.00000000e-02)	0	7.04742332e+01	(-5.98615221e-04 8.21233980e-06 5.00000000e-02)	5
35              	mag(U)          	0.00000000e+00	(3.17484583e-01 0.00000000e+00 5.00000000e-02)	0	7.05159209e+01	(-5.98615221e-04 9.00270144e-06 5.00000000e-02)	5
36              	mag(U)          	0.00000000e+00	(3.17484583e-01 0.00000000e+00 5.00000000e-02)	0	7.05582324e+01	(-5.98615221e-04 9.00270144e-06 5.00000000e-02)	5
37              	mag(U)          	0.00000000e+00	(3.17484583e-01 0.00000000e+00 5.00000000e-02)	0	7.06004531e+01	(-5.98615221e-04 9.00270144e-06 5.00000000e-02)	5
38              	mag(U)          	0.00000000e+00	(3.17484583e-01 0.00000000e+00 5.00000000e-02)	0	7.06425714e+01	(-5.98615221e-04 9.00270144e-06 5.00000000e-02)	5
39              	mag(U)          	0.00000000e+00	(3.17484583e-01 0.00000000e+00 5.00000000e-02)	0	7.06845995e+01	(-5.98615221e-04 9.81564942e-06 5.00000000e-02)	5
40              	mag(U)          	0.00000000e+00	(3.17484583e-01 0.00000000e+00 5.00000000e-02)	0	7.07276423e+01	(-5.98615221e-04 9.81564942e-06 5.00000000e-02)	5
41              	mag(U)          	0.00000000e+00	(3.17484583e-01 0.00000000e+00 5.00000000e-02)	0	7.07705090e+01	(-5.98615221e-04 9.81564942e-06 5.00000000e-02)	5
42              	mag(U)          	0.00000000e+00	(3.17484583e-01 0.00000000e+00 5.00000000e-02)	0	7.08132324e+01	(-5.98615221e-04 9.81564942e-06 5.00000000e-02)	5
43              	mag(U)          	0.00000000e+00	(3.17484583e-01 0.00000000e+00 5.00000000e-02)	0	7.08557620e+01	(-5.98615221e-04 9.81564942e-06 5.00000000e-02)	5
44              	mag(U)          	0.00000000e+00	(3.17484583e-01 0.00000000e+00 5.00000000e-02)	0	7.08981791e+01	(-5.98615221e-04 1.06518292e-05 5.00000000e-02)	5
45              	mag(U)          	0.00000000e+00	(3.17484583e-01 0.00000000e+00 5.00000000e-02)	0	7.09413758e+01	(-5.98615221e-04 1.06518292e-05 5.00000000e-02)	5
46              	mag(U)          	0.00000000e+00	(3.17484583e-01 0.00000000e+00 5.00000000e-02)	0	7.09843764e+01	(-5.98615221e-04 1.06518292e-05 5.00000000e-02)	5
47              	mag(U)          	0.00000000e+00	(3.17484583e-01 0.00000000e+00 5.00000000e-02)	0	7.10271285e+01	(-5.98615221e-04 1.06518292e-05 5.00000000e-02)	5
48              	mag(U)          	0.00000000e+00	(3.17484583e-01 0.00000000e+00 5.00000000e-02)	0	7.10696659e+01	(-5.98615221e-04 1.06518292e-05 5.00000000e-02)	5
49              	mag(U)          	0.00000000e+00	(3.17484583e-01 0.00000000e+00 5.00000000e-02)	0	7.11119387e+01	(-5.98615221e-04 1.06518292e-05 5.00000000e-02)	5
50              	mag(U)          	0.00000000e+00	(3.17484583e-01 0.00000000e+00 5.00000000e-02)	0	7.11541421e+01	(-5.98615221e-04 1.15119047e-05 5.00000000e-02)	5
51              	mag(U)          	0.00000000e+00	(3.17484583e-01 0.00000000e+00 5.00000000e-02)	0	7.11967817e+01	(-5.98615221e-04 1.15119047e-05 5.00000000e-02)	5
52              	mag(U)          	0.00000000e+00	(3.17484583e-01 0.00000000e+00 5.00000000e-02)	0	7.12391533e+01	(-5.98615221e-04 1.15119047e-05 5.00000000e-02)	5
53              	mag(U)          	0.00000000e+00	(3.17484583e-01 0.00000000e+00 5.00000000e-02)	0	7.12812091e+01	(-5.98615221e-04 1.15119047e-05 5.00000000e-02)	5
54              	mag(U)          	0.00000000e+00	(3.17484583e-01 0.00000000e+00 5.00000000e-02)	0	7.13229829e+01	(-5.98615221e-04 1.15119047e-05 5.00000000e-02)	5
55              	mag(U)          	0.00000000e+00	(3.17484583e-01 0.00000000e+00 5.00000000e-02)	0	7.13644292e+01	(-5.98615221e-04 1.15119047e-05 5.00000000e-02)	5
56              	mag(U)          	0.00000000e+00	(3.17484583e-01 0.00000000e+00 5.00000000e-02)	0	7.14055814e+01	(-5.98615221e-04 1.15119047e-05 5.00000000e-02)	5
57              	mag(U)          	0.00000000e+00	(3.17484583e-01 0.00000000e+00 5.00000000e-02)	0	7.14463964e+01	(-5.98615221e-04 1.15119047e-05 5.00000000e-02)	5
58              	mag(U)          	0.00000000e+00	(3.17484583e-01 0.00000000e+00 5.00000000e-02)	0	7.14873195e+01	(-5.98615221e-04 1.23965587e-05 5.00000000e-02)	5
59              	mag(U)          	0.00000000e+00	(3.17484583e-01 0.00000000e+00 5.00000000e-02)	0	7.15281314e+01	(-5.98615221e-04 1.23965587e-05 5.00000000e-02)	5
60              	mag(U)          	0.00000000e+00	(3.17484583e-01 0.00000000e+00 5.00000000e-02)	0	7.15686051e+01	(-5.98615221e-04 1.23965587e-05 5.00000000e-02)	5
61              	mag(U)          	0.00000000e+00	(3.17484583e-01 0.00000000e+00 5.00000000e-02)	0	7.16086998e+01	(-5.98615221e-04 1.23965587e-05 5.00000000e-02)	5
62              	mag(U)          	0.00000000e+00	(3.17484583e-01 0.00000000e+00 5.00000000e-02)	0	7.16484487e+01	(-5.98615221e-04 1.23965587e-05 5.00000000e-02)	5
63              	mag(U)          	0.00000000e+00	(3.17484583e-01 0.00000000e+00 5.00000000e-02)	0	7.16878133e+01	(-5.98615221e-04 1.23965587e-05 5.00000000e-02)	5
64              	mag(U)          	0.00000000e+00	(3.17484583e-01 0.00000000e+00 5.00000000e-02)	0	7.17268262e+01	(-5.98615221e-04 1.23965587e-05 5.00000000e-02)	5
65              	mag(U)          	0.00000000e+00	(3.17484583e-01 0.00000000e+00 5.00000000e-02)	0	7.17654510e+01	(-5.98615221e-04 1.23965587e-05 5.00000000e-02)	5
66              	mag(U)          	0.00000000e+00	(3.17484583e-01 0.00000000e+00 5.00000000e-02)	0	7.18037197e+01	(-5.98615221e-04 1.23965587e-05 5.00000000e-02)	5
67              	mag(U)          	0.00000000e+00	(3.17484583e-01 0.00000000e+00 5.00000000e-02)	0	7.18415979e+01	(-5.98615221e-04 1.23965587e-05 5.00000000e-02)	5
68              	mag(U)          	0.00000000e+00	(3.17484583e-01 0.00000000e+00 5.00000000e-02)	0	7.18791169e+01	(-5.98615221e-04 1.23965587e-05 5.00000000e-02)	5
69              	mag(U)          	0.00000000e+00	(3.17484583e-01 0.00000000e+00 5.00000000e-02)	0	7.19162442e+01	(-5.98615221e-04 1.23965587e-05 5.00000000e-02)	5
70              	mag(U)          	0.00000000e+00	(3.17484583e-01 0.00000000e+00 5.00000000e-02)	0	7.19530106e+01	(-5.98615221e-04 1.23965587e-05 5.00000000e-02)	5
71              	mag(U)          	0.00000000e+00	(3.17484583e-01 0.00000000e+00 5.00000000e-02)	0	7.19896291e+01	(-5.98615221e-04 1.33064937e-05 5.00000000e-02)	5
72              	mag(U)          	0.00000000e+00	(3.17484583e-01 0.00000000e+00 5.00000000e-02)	0	7.20259206e+01	(-5.98615221e-04 1.33064937e-05 5.00000000e-02)	5
73              	mag(U)          	0.00000000e+00	(3.17484583e-01 0.00000000e+00 5.00000000e-02)	0	7.20617955e+01	(-5.98615221e-04 1.33064937e-05 5.00000000e-02)	5
74              	mag(U)          	0.00000000e+00	(3.17484583e-01 0.00000000e+00 5.00000000e-02)	0	7.20972848e+01	(-5.98615221e-04 1.33064937e-05 5.00000000e-02)	5
75              	mag(U)          	0.00000000e+00	(3.17484583e-01 0.00000000e+00 5.00000000e-02)	0	7.21323601e+01	(-5.98615221e-04 1.33064937e-05 5.00000000e-02)	5
76              	mag(U)          	0.00000000e+00	(3.17484583e-01 0.00000000e+00 5.00000000e-02)	0	7.21670516e+01	(-5.98615221e-04 1.33064937e-05 5.00000000e-02)	5
77              	mag(U)          	0.00000000e+00	(3.17484583e-01 0.00000000e+00 5.00000000e-02)	0	7.22013326e+01	(-5.98615221e-04 1.33064937e-05 5.00000000e-02)	5
78              	mag(U)          	0.00000000e+00	(3.17484583e-01 0.00000000e+00 5.00000000e-02)	0	7.22352326e+01	(-5.98615221e-04 1.33064937e-05 5.00000000e-02)	5
79              	mag(U)          	0.00000000e+00	(3.17484583e-01 0.00000000e+00 5.00000000e-02)	0	7.22687263e+01	(-5.98615221e-04 1.33064937e-05 5.00000000e-02)	5
80              	mag(U)          	0.00000000e+00	(3.17484583e-01 0.00000000e+00 5.00000000e-02)	0	7.23018234e+01	(-5.98615221e-04 1.33064937e-05 5.00000000e-02)	5
81              	mag(U)          	0.00000000e+00	(3.17484583e-01 0.00000000e+00 5.00000000e-02)	0	7.23345490e+01	(-5.98615221e-04 1.33064937e-05 5.00000000e-02)	5
82              	mag(U)          	0.00000000e+00	(3.17484583e-01 0.00000000e+00 5.00000000e-02)	0	7.23668770e+01	(-5.98615221e-04 1.33064937e-05 5.00000000e-02)	5
83              	mag(U)          	0.00000000e+00	(3.17484583e-01 0.00000000e+00 5.00000000e-02)	0	7.23988354e+01	(-5.98615221e-04 1.33064937e-05 5.00000000e-02)	5
84              	mag(U)          	0.00000000e+00	(3.17484583e-01 0.00000000e+00 5.00000000e-02)	0	7.24304016e+01	(-5.98615221e-04 1.33064937e-05 5.00000000e-02)	5
85              	mag(U)          	0.00000000e+00	(3.17484583e-01 0.00000000e+00 5.00000000e-02)	0	7.24615852e+01	(-5.98615221e-04 1.33064937e-05 5.00000000e-02)	5
86              	mag(U)          	0.00000000e+00	(3.17484583e-01 0.00000000e+00 5.00000000e-02)	0	7.24923915e+01	(-5.98615221e-04 1.33064937e-05 5.00000000e-02)	5
87              	mag(U)          	0.00000000e+00	(3.17484583e-01 0.00000000e+00 5.00000000e-02)	0	7.25228439e+01	(-5.98615221e-04 1.33064937e-05 5.00000000e-02)	5
88              	mag(U)          	0.00000000e+00	(3.17484583e-01 0.00000000e+00 5.00000000e-02)	0	7.25529185e+01	(-5.98615221e-04 1.33064937e-05 5.00000000e-02)	5
89              	mag(U)          	0.00000000e+00	(3.17484583e-01 0.00000000e+00 5.00000000e-02)	0	7.25826246e+01	(-5.98615221e-04 1.33064937e-05 5.00000000e-02)	5
90              	mag(U)          	0.00000000e+00	(3.17484583e-01 0.00000000e+00 5.00000000e-02)	0	7.26119675e+01	(-5.98615221e-04 1.33064937e-05 5.00000000e-02)	5
91              	mag(U)          	0.00000000e+00	(3.17484583e-01 0.00000000e+00 5.00000000e-02)	0	7.26409691e+01	(-5.98615221e-04 1.33064937e-05 5.00000000e-02)	5
92              	mag(U)          	0.00000000e+00	(3.17484583e-01 0.00000000e+00 5.00000000e-02)	0	7.26696078e+01	(-5.98615221e-04 1.33064937e-05 5.00000000e-02)	5
93              	mag(U)          	0.00000000e+00	(3.17484583e-01 0.00000000e+00 5.00000000e-02)	0	7.26978926e+01	(-5.98615221e-04 1.33064937e-05 5.00000000e-02)	5
94              	mag(U)          	0.00000000e+00	(3.17484583e-01 0.00000000e+00 5.00000000e-02)	0	7.27258290e+01	(-5.98615221e-04 1.33064937e-05 5.00000000e-02)	5
95              	mag(U)          	0.00000000e+00	(3.17484583e-01 0.00000000e+00 5.00000000e-02)	0	7.27534217e+01	(-5.98615221e-04 1.33064937e-05 5.00000000e-02)	5
96              	mag(U)          	0.00000000e+00	(3.17484583e-01 0.00000000e+00 5.00000000e-02)	0	7.27806910e+01	(-5.98615221e-04 1.33064937e-05 5.00000000e-02)	5
97              	mag(U)          	0.00000000e+00	(3.17484583e-01 0.00000000e+00 5.00000000e-02)	0	7.28076173e+01	(-5.98615221e-04 1.33064937e-05 5.00000000e-02)	5
98              	mag(U)          	0.00000000e+00	(3.17484583e-01 0.00000000e+00 5.00000000e-02)	0	7.28342746e+01	(-5.98615221e-04 1.23965587e-05 5.00000000e-02)	5
99              	mag(U)          	0.00000000e+00	(3.17484583e-01 0.00000000e+00 5.00000000e-02)	0	7.28608058e+01	(-5.98615221e-04 1.23965587e-05 5.00000000e-02)	5
100             	mag(U)          	0.00000000e+00	(3.17484583e-01 0.00000000e+00 5.00000000e-02)	0	7.28870267e+01	(-5.98615221e-04 1.23965587e-05 5.00000000e-02)	5
101             	mag(U)          	0.00000000e+00	(3.17484583e-01 0.00000000e+00 5.00000000e-02)	0	7.29129411e+01	(-5.98615221e-04 1.23965587e-05 5.00000000e-02)	5
102             	mag(U)          	0.00000000e+00	(3.17484583e-01 0.00000000e+00 5.00000000e-02)	0	7.29385529e+01	(-5.98615221e-04 1.23965587e-05 5.00000000e-02)	5
103             	mag(U)          	0.00000000e+00	(3.17484583e-01 0.00000000e+00 5.00000000e-02)	0	7.29638658e+01	(-5.98615221e-04 1.23965587e-05 5.00000000e-02)	5
104             	mag(U)          	0.00000000e+00	(3.17484583e-01 0.00000000e+00 5.00000000e-02)	0	7.29888833e+01	(-5.98615221e-04 1.23965587e-05 5.00000000e-02)	5
105             	mag(U)          	0.00000000e+00	(3.17484583e-01 0.00000000e+00 5.00000000e-02)	0	7.30136090e+01	(-5.98615221e-04 1.23965587e-05 5.00000000e-02)	5
106             	mag(U)          	0.00000000e+00	(3.17484583e-01 0.00000000e+00 5.00000000e-02)	0	7.30380465e+01	(-5.98615221e-04 1.23965587e-05 5.00000000e-02)	5
107             	mag(U)          	0.00000000e+00	(3.17484583e-01 0.00000000e+00 5.00000000e-02)	0	7.30621993e+01	(-5.98615221e-04 1.23965587e-05 5.00000000e-02)	5
108             	mag(U)          	0.00000000e+00	(3.17484583e-01 0.00000000e+00 5.00000000e-02)	0	7.30860707e+01	(-5.98615221e-04 1.23965587e-05 5.00000000e-02)	5
109             	mag(U)          	0.00000000e+00	(3.17484583e-01 0.00000000e+00 5.00000000e-02)	0	7.31096644e+01	(-5.98615221e-04 1.23965587e-05 5.00000000e-02)	5
110             	mag(U)          	0.00000000e+00	(3.17484583e-01 0.00000000e+00 5.00000000e-02)	0	7.31329836e+01	(-5.98615221e-04 1.23965587e-05 5.00000000e-02)	5
111             	mag(U)          	0.00000000e+00	(3.17484583e-01 0.00000000e+00 5.00000000e-02)	0	7.31560320e+01	(-5.98615221e-04 1.23965587e-05 5.00000000e-02)	5
112             	mag(U)          	0.00000000e+00	(3.17484583e-01 0.00000000e+00 5.00000000e-02)	0	7.31788128e+01	(-5.98615221e-04 1.23965587e-05 5.00000000e-02)	5
113             	mag(U)          	0.00000000e+00	(3.17484583e-01 0.00000000e+00 5.00000000e-02)	0	7.32013294e+01	(-5.98615221e-04 1.23965587e-05 5.00000000e-02)	5
114             	mag(U)          	0.00000000e+00	(3.17484583e-01 0.00000000e+00 5.00000000e-02)	0	7.32235852e+01	(-5.98615221e-04 1.23965587e-05 5.00000000e-02)	5
115             	mag(U)          	0.00000000e+00	(3.17484583e-01 0.00000000e+00 5.00000000e-02)	0	7.32455835e+01	(-5.98615221e-04 1.23965587e-05 5.00000000e-02)	5
116             	mag(U)          	0.00000000e+00	(3.17484583e-01 0.00000000e+00 5.00000000e-02)	0	7.32673277e+01	(-5.98615221e-04 1.23965587e-05 5.00000000e-02)	5
117             	mag(U)          	0.00000000e+00	(3.17484583e-01 0.00000000e+00 5.00000000e-02)	0	7.32888209e+01	(-5.98615221e-04 1.23965587e-05 5.00000000e-02)	5
118             	mag(U)          	0.00000000e+00	(3.17484583e-01 0.00000000e+00 5.00000000e-02)	0	7.33104756e+01	(-5.98615221e-04 1.15119047e-05 5.00000000e-02)	5
119             	mag(U)          	0.00000000e+00	(3.17484583e-01 0.00000000e+00 5.00000000e-02)	0	7.33319339e+01	(-5.98615221e-04 1.15119047e-05 5.00000000e-02)	5
120             	mag(U)          	0.00000000e+00	(3.17484583e-01 0.00000000e+00 5.00000000e-02)	0	7.33531570e+01	(-5.98615221e-04 1.15119047e-05 5.00000000e-02)	5
121             	mag(U)          	0.00000000e+00	(3.17484583e-01 0.00000000e+00 5.00000000e-02)	0	7.33741480e+01	(-5.98615221e-04 1.15119047e-05 5.00000000e-02)	5
122             	mag(U)          	0.00000000e+00	(3.17484583e-01 0.00000000e+00 5.00000000e-02)	0	7.33949095e+01	(-5.98615221e-04 1.15119047e-05 5.00000000e-02)	5
123             	mag(U)          	0.00000000e+00	(3.17484583e-01 0.00000000e+00 5.00000000e-02)	0	7.34154444e+01	(-5.98615221e-04 1.15119047e-05 5.00000000e-02)	5
124             	mag(U)          	0.00000000e+00	(3.17484583e-01 0.00000000e+00 5.00000000e-02)	0	7.34357554e+01	(-5.98615221e-04 1.15119047e-05 5.00000000e-02)	5
125             	mag(U)          	0.00000000e+00	(3.17484583e-01 0.00000000e+00 5.00000000e-02)	0	7.34558452e+01	(-5.98615221e-04 1.15119047e-05 5.00000000e-02)	5
126             	mag(U)          	0.00000000e+00	(3.17484583e-01 0.00000000e+00 5.00000000e-02)	0	7.34757165e+01	(-5.98615221e-04 1.15119047e-05 5.00000000e-02)	5
127             	mag(U)          	0.00000000e+00	(3.17484583e-01 0.00000000e+00 5.00000000e-02)	0	7.34953720e+01	(-5.98615221e-04 1.15119047e-05 5.00000000e-02)	5
128             	mag(U)          	0.00000000e+00	(3.17484583e-01 0.00000000e+00 5.00000000e-02)	0	7.35148143e+01	(-5.98615221e-04 1.15119047e-05 5.00000000e-02)	5
129             	mag(U)          	0.00000000e+00	(3.17484583e-01 0.00000000e+00 5.00000000e-02)	0	7.35340459e+01	(-5.98615221e-04 1.15119047e-05 5.00000000e-02)	5
130             	mag(U)          	0.00000000e+00	(3.17484583e-01 0.00000000e+00 5.00000000e-02)	0	7.35530695e+01	(-5.98615221e-04 1.15119047e-05 5.00000000e-02)	5
131             	mag(U)          	0.00000000e+00	(3.17484583e-01 0.00000000e+00 5.00000000e-02)	0	7.35718876e+01	(-5.98615221e-04 1.15119047e-05 5.00000000e-02)	5
132             	mag(U)          	0.00000000e+00	(3.17484583e-01 0.00000000e+00 5.00000000e-02)	0	7.35908200e+01	(-5.98615221e-04 1.06518292e-05 5.00000000e-02)	5
133             	mag(U)          	0.00000000e+00	(3.17484583e-01 0.00000000e+00 5.00000000e-02)	0	7.36097463e+01	(-5.98615221e-04 1.06518292e-05 5.00000000e-02)	5
134             	mag(U)          	0.00000000e+00	(3.17484583e-01 0.00000000e+00 5.00000000e-02)	0	7.36284772e+01	(-5.98615221e-04 1.06518292e-05 5.00000000e-02)	5
135             	mag(U)          	0.00000000e+00	(3.17484583e-01 0.00000000e+00 5.00000000e-02)	0	7.36470147e+01	(-5.98615221e-04 1.06518292e-05 5.00000000e-02)	5
136             	mag(U)          	0.00000000e+00	(3.17484583e-01 0.00000000e+00 5.00000000e-02)	0	7.36653611e+01	(-5.98615221e-04 1.06518292e-05 5.00000000e-02)	5
137             	mag(U)          	0.00000000e+00	(3.17484583e-01 0.00000000e+00 5.00000000e-02)	0	7.36835186e+01	(-5.98615221e-04 1.06518292e-05 5.00000000e-02)	5
138             	mag(U)          	0.00000000e+00	(3.17484583e-01 0.00000000e+00 5.00000000e-02)	0	7.37014891e+01	(-5.98615221e-04 1.06518292e-05 5.00000000e-02)	5
139             	mag(U)          	0.00000000e+00	(3.17484583e-01 0.00000000e+00 5.00000000e-02)	0	7.37192749e+01	(-5.98615221e-04 1.06518292e-05 5.00000000e-02)	5
140             	mag(U)          	0.00000000e+00	(3.17484583e-01 0.00000000e+00 5.00000000e-02)	0	7.37368779e+01	(-5.98615221e-04 1.06518292e-05 5.00000000e-02)	5
141             	mag(U)          	0.00000000e+00	(3.17484583e-01 0.00000000e+00 5.00000000e-02)	0	7.37543002e+01	(-5.98615221e-04 1.06518292e-05 5.00000000e-02)	5
142             	mag(U)          	0.00000000e+00	(3.17484583e-01 0.00000000e+00 5.00000000e-02)	0	7.37715438e+01	(-5.98615221e-04 1.06518292e-05 5.00000000e-02)	5
143             	mag(U)          	0.00000000e+00	(3.17484583e-01 0.00000000e+00 5.00000000e-02)	0	7.37886106e+01	(-5.98615221e-04 1.06518292e-05 5.00000000e-02)	5
144             	mag(U)          	0.00000000e+00	(3.17484583e-01 0.00000000e+00 5.00000000e-02)	0	7.38055026e+01	(-5.98615221e-04 1.06518292e-05 5.00000000e-02)	5
145             	mag(U)          	0.00000000e+00	(3.17484583e-01 0.00000000e+00 5.00000000e-02)	0	7.38226547e+01	(-5.98615221e-04 9.81564942e-06 5.00000000e-02)	5
146             	mag(U)          	0.00000000e+00	(3.17484583e-01 0.00000000e+00 5.00000000e-02)	0	7.38397281e+01	(-5.98615221e-04 9.81564942e-06 5.00000000e-02)	5
147             	mag(U)          	0.00000000e+00	(3.17484583e-01 0.00000000e+00 5.00000000e-02)	0	7.38566328e+01	(-5.98615221e-04 9.81564942e-06 5.00000000e-02)	5
148             	mag(U)          	0.00000000e+00	(3.17484583e-01 0.00000000e+00 5.00000000e-02)	0	7.38733706e+01	(-5.98615221e-04 9.81564942e-06 5.00000000e-02)	5
149             	mag(U)          	0.00000000e+00	(3.17484583e-01 0.00000000e+00 5.00000000e-02)	0	7.38899431e+01	(-5.98615221e-04 9.81564942e-06 5.00000000e-02)	5
150             	mag(U)          	0.00000000e+00	(3.17484583e-01 0.00000000e+00 5.00000000e-02)	0	7.39063520e+01	(-5.98615221e-04 9.81564942e-06 5.00000000e-02)	5
151             	mag(U)          	0.00000000e+00	(3.17484583e-01 0.00000000e+00 5.00000000e-02)	0	7.39225989e+01	(-5.98615221e-04 9.81564942e-06 5.00000000e-02)	5
152             	mag(U)          	0.00000000e+00	(3.17484583e-01 0.00000000e+00 5.00000000e-02)	0	7.39386854e+01	(-5.98615221e-04 9.81564942e-06 5.00000000e-02)	5
153             	mag(U)          	0.00000000e+00	(3.17484583e-01 0.00000000e+00 5.00000000e-02)	0	7.39546132e+01	(-5.98615221e-04 9.81564942e-06 5.00000000e-02)	5
154             	mag(U)          	0.00000000e+00	(3.17484583e-01 0.00000000e+00 5.00000000e-02)	0	7.39703838e+01	(-5.98615221e-04 9.81564942e-06 5.00000000e-02)	5
155             	mag(U)          	0.00000000e+00	(3.17484583e-01 0.00000000e+00 5.00000000e-02)	0	7.39859988e+01	(-5.98615221e-04 9.81564942e-06 5.00000000e-02)	5
156             	mag(U)          	0.00000000e+00	(3.17484583e-01 0.00000000e+00 5.00000000e-02)	0	7.40014597e+01	(-5.98615221e-04 9.81564942e-06 5.00000000e-02)	5
157             	mag(U)          	0.00000000e+00	(3.17484583e-01 0.00000000e+00 5.00000000e-02)	0	7.40171077e+01	(-5.98615221e-04 9.00270144e-06 5.00000000e-02)	5
158             	mag(U)          	0.00000000e+00	(3.17484583e-01 0.00000000e+00 5.00000000e-02)	0	7.40327809e+01	(-5.98615221e-04 9.00270144e-06 5.00000000e-02)	5
159             	mag(U)          	0.00000000e+00	(3.17484583e-01 0.00000000e+00 5.00000000e-02)	0	7.40483037e+01	(-5.98615221e-04 9.00270144e-06 5.00000000e-02)	5
160             	mag(U)          	0.00000000e+00	(3.17484583e-01 0.00000000e+00 5.00000000e-02)	0	7.40636775e+01	(-5.98615221e-04 9.00270144e-06 5.00000000e-02)	5
161             	mag(U)          	0.00000000e+00	(3.17484583e-01 0.00000000e+00 5.00000000e-02)	0	7.40789035e+01	(-5.98615221e-04 9.00270144e-06 5.00000000e-02)	5
162             	mag(U)          	0.00000000e+00	(3.17484583e-01 0.00000000e+00 5.00000000e-02)	0	7.40939832e+01	(-5.98615221e-04 9.00270144e-06 5.00000000e-02)	5
163             	mag(U)          	0.00000000e+00	(3.17484583e-01 0.00000000e+00 5.00000000e-02)	0	7.41089179e+01	(-5.98615221e-04 9.00270144e-06 5.00000000e-02)	5
164             	mag(U)          	0.00000000e+00	(3.17484583e-01 0.00000000e+00 5.00000000e-02)	0	7.41237088e+01	(-5.98615221e-04 9.00270144e-06 5.00000000e-02)	5
165             	mag(U)          	0.00000000e+00	(3.17484583e-01 0.00000000e+00 5.00000000e-02)	0	7.41383573e+01	(-5.98615221e-04 9.00270144e-06 5.00000000e-02)	5
166             	mag(U)          	0.00000000e+00	(3.17484583e-01 0.00000000e+00 5.00000000e-02)	0	7.41528648e+01	(-5.98615221e-04 9.00270144e-06 5.00000000e-02)	5
167             	mag(U)          	0.00000000e+00	(3.17484583e-01 0.00000000e+00 5.00000000e-02)	0	7.41672324e+01	(-5.98615221e-04 9.00270144e-06 5.00000000e-02)	5
168             	mag(U)          	0.00000000e+00	(3.17484583e-01 0.00000000e+00 5.00000000e-02)	0	7.41814614e+01	(-5.98615221e-04 9.00270144e-06 5.00000000e-02)	5
169             	mag(U)          	0.00000000e+00	(3.17484583e-01 0.00000000e+00 5.00000000e-02)	0	7.41959115e+01	(-5.98615221e-04 8.21233980e-06 5.00000000e-02)	5
170             	mag(U)          	0.00000000e+00	(3.17484583e-01 0.00000000e+00 5.00000000e-02)	0	7.42103604e+01	(-5.98615221e-04 8.21233980e-06 5.00000000e-02)	5
171             	mag(U)          	0.00000000e+00	(3.17484583e-01 0.00000000e+00 5.00000000e-02)	0	7.42246726e+01	(-5.98615221e-04 8.21233980e-06 5.00000000e-02)	5
172             	mag(U)          	0.00000000e+00	(3.17484583e-01 0.00000000e+00 5.00000000e-02)	0	7.42388494e+01	(-5.98615221e-04 8.21233980e-06 5.00000000e-02)	5
173             	mag(U)          	0.00000000e+00	(3.17484583e-01 0.00000000e+00 5.00000000e-02)	0	7.42528919e+01	(-5.98615221e-04 8.21233980e-06 5.00000000e-02)	5
174             	mag(U)          	0.00000000e+00	(3.17484583e-01 0.00000000e+00 5.00000000e-02)	0	7.42668013e+01	(-5.98615221e-04 8.21233980e-06 5.00000000e-02)	5
175             	mag(U)          	0.00000000e+00	(3.17484583e-01 0.00000000e+00 5.00000000e-02)	0	7.42805786e+01	(-5.98615221e-04 8.21233980e-06 5.00000000e-02)	5
176             	mag(U)          	0.00000000e+00	(3.17484583e-01 0.00000000e+00 5.00000000e-02)	0	7.42942251e+01	(-5.98615221e-04 8.21233980e-06 5.00000000e-02)	5
177             	mag(U)          	0.00000000e+00	(3.17484583e-01 0.00000000e+00 5.00000000e-02)	0	7.43077417e+01	(-5.98615221e-04 8.21233980e-06 5.00000000e-02)	5
178             	mag(U)          	0.00000000e+00	(3.17484583e-01 0.00000000e+00 5.00000000e-02)	0	7.43211296e+01	(-5.98615221e-04 8.21233980e-06 5.00000000e-02)	5
179             	mag(U)          	0.00000000e+00	(3.17484583e-01 0.00000000e+00 5.00000000e-02)	0	7.43343899e+01	(-5.98615221e-04 8.21233980e-06 5.00000000e-02)	5
180             	mag(U)          	0.00000000e+00	(3.17484583e-01 0.00000000e+00 5.00000000e-02)	0	7.43475236e+01	(-5.98615221e-04 8.21233980e-06 5.00000000e-02)	5
181             	mag(U)          	0.00000000e+00	(3.17484583e-01 0.00000000e+00 5.00000000e-02)	0	7.43608942e+01	(-5.98615221e-04 7.44393698e-06 5.00000000e-02)	5
182             	mag(U)          	0.00000000e+00	(3.17484583e-01 0.00000000e+00 5.00000000e-02)	0	7.43742401e+01	(-5.98615221e-04 7.44393698e-06 5.00000000e-02)	5
183             	mag(U)          	0.00000000e+00	(3.17484583e-01 0.00000000e+00 5.00000000e-02)	0	7.43874604e+01	(-5.98615221e-04 7.44393698e-06 5.00000000e-02)	5